 Entering Link 1 = C:\G09W\l1.exe PID=      8652.
  
 Copyright (c) 1988,1990,1992,1993,1995,1998,2003,2009, Gaussian, Inc.
                  All Rights Reserved.
  
 This is part of the Gaussian(R) 09 program.  It is based on
 the Gaussian(R) 03 system (copyright 2003, Gaussian, Inc.),
 the Gaussian(R) 98 system (copyright 1998, Gaussian, Inc.),
 the Gaussian(R) 94 system (copyright 1995, Gaussian, Inc.),
 the Gaussian 92(TM) system (copyright 1992, Gaussian, Inc.),
 the Gaussian 90(TM) system (copyright 1990, Gaussian, Inc.),
 the Gaussian 88(TM) system (copyright 1988, Gaussian, Inc.),
 the Gaussian 86(TM) system (copyright 1986, Carnegie Mellon
 University), and the Gaussian 82(TM) system (copyright 1983,
 Carnegie Mellon University). Gaussian is a federally registered
 trademark of Gaussian, Inc.
  
 This software contains proprietary and confidential information,
 including trade secrets, belonging to Gaussian, Inc.
  
 This software is provided under written license and may be
 used, copied, transmitted, or stored only in accord with that
 written license.
  
 The following legend is applicable only to US Government
 contracts under FAR:
  
                    RESTRICTED RIGHTS LEGEND
  
 Use, reproduction and disclosure by the US Government is
 subject to restrictions as set forth in subparagraphs (a)
 and (c) of the Commercial Computer Software - Restricted
 Rights clause in FAR 52.227-19.
  
 Gaussian, Inc.
 340 Quinnipiac St., Bldg. 40, Wallingford CT 06492
  
  
 ---------------------------------------------------------------
 Warning -- This program may not be used in any manner that
 competes with the business of Gaussian, Inc. or will provide
 assistance to any competitor of Gaussian, Inc.  The licensee
 of this program is prohibited from giving any competitor of
 Gaussian, Inc. access to this program.  By using this program,
 the user acknowledges that Gaussian, Inc. is engaged in the
 business of creating and licensing software in the field of
 computational chemistry and represents and warrants to the
 licensee that it is not a competitor of Gaussian, Inc. and that
 it will not use this program in any manner prohibited above.
 ---------------------------------------------------------------
  

 Cite this work as:
 Gaussian 09, Revision A.02,
 M. J. Frisch, G. W. Trucks, H. B. Schlegel, G. E. Scuseria, 
 M. A. Robb, J. R. Cheeseman, G. Scalmani, V. Barone, B. Mennucci, 
 G. A. Petersson, H. Nakatsuji, M. Caricato, X. Li, H. P. Hratchian, 
 A. F. Izmaylov, J. Bloino, G. Zheng, J. L. Sonnenberg, M. Hada, 
 M. Ehara, K. Toyota, R. Fukuda, J. Hasegawa, M. Ishida, T. Nakajima, 
 Y. Honda, O. Kitao, H. Nakai, T. Vreven, J. A. Montgomery, Jr., 
 J. E. Peralta, F. Ogliaro, M. Bearpark, J. J. Heyd, E. Brothers, 
 K. N. Kudin, V. N. Staroverov, R. Kobayashi, J. Normand, 
 K. Raghavachari, A. Rendell, J. C. Burant, S. S. Iyengar, J. Tomasi, 
 M. Cossi, N. Rega, J. M. Millam, M. Klene, J. E. Knox, J. B. Cross, 
 V. Bakken, C. Adamo, J. Jaramillo, R. Gomperts, R. E. Stratmann, 
 O. Yazyev, A. J. Austin, R. Cammi, C. Pomelli, J. W. Ochterski, 
 R. L. Martin, K. Morokuma, V. G. Zakrzewski, G. A. Voth, 
 P. Salvador, J. J. Dannenberg, S. Dapprich, A. D. Daniels, 
 O. Farkas, J. B. Foresman, J. V. Ortiz, J. Cioslowski, 
 and D. J. Fox, Gaussian, Inc., Wallingford CT, 2009.
 
 ******************************************
 Gaussian 09:  IA32W-G09RevA.02 11-Jun-2009
                08-Feb-2021 
 ******************************************
 %chk=D:\Documents\rayGit\FQ\quimicaComputacional\proyecto\decompositionHydrogenP
 eroxide\descompositionByRadicals\gasPhase\step4\ts\tsM062X.chk
 %mem=1500MB
 %nprocshared=4
 Will use up to    4 processors via shared memory.
 ----------------------------------------------------------------------
 # opt=(calcfc,ts,noeigen,maxcycles=100) freq=noraman 6-31+g(d,p) m062x
 ----------------------------------------------------------------------
 1/5=1,6=100,10=4,11=1,14=-1,18=20,26=3,38=1/1,3;
 2/9=110,12=2,17=6,18=5,40=1/2;
 3/5=1,6=6,7=111,11=2,16=1,25=1,30=1,71=2,74=-55/1,2,3;
 4//1;
 5/5=2,38=5/2;
 8/6=4,10=90,11=11/1;
 11/6=1,8=1,9=11,15=111,16=1/1,2,10;
 10/6=1,7=6,13=1/2;
 6/7=2,8=2,9=2,10=2,28=1/1;
 7/10=1,18=20,25=1/1,2,3,16;
 1/5=1,6=100,10=4,11=1,14=-1,18=20/3(2);
 2/9=110/2;
 99//99;
 2/9=110/2;
 3/5=1,6=6,7=111,11=2,16=1,25=1,30=1,71=1,74=-55/1,2,3;
 4/5=5,16=3/1;
 5/5=2,38=5/2;
 7//1,2,3,16;
 1/5=1,6=100,11=1,14=-1,18=20/3(-5);
 2/9=110/2;
 6/7=2,8=2,9=2,10=2,19=2,28=1/1;
 99/9=1/99;
 ---
 ts2
 ---
 Symbolic Z-matrix:
 Charge =  0 Multiplicity = 1
 O                    -0.45749  -0.42312   0. 
 O                     0.76204   0.02714   0. 
 H                     1.25245   1.42819   0. 
 O                     1.67145   2.68331   0. 
 H                     1.97544   3.59391   0. 
 

 GradGradGradGradGradGradGradGradGradGradGradGradGradGradGradGradGradGrad
 Berny optimization.
 Initialization pass.
                           ----------------------------
                           !    Initial Parameters    !
                           ! (Angstroms and Degrees)  !
 --------------------------                            --------------------------
 ! Name  Definition              Value          Derivative Info.                !
 --------------------------------------------------------------------------------
 ! R1    R(1,2)                  1.3            calculate D2E/DX2 analytically  !
 ! R2    R(2,3)                  1.4844         calculate D2E/DX2 analytically  !
 ! R3    R(3,4)                  1.3232         calculate D2E/DX2 analytically  !
 ! R4    R(4,5)                  0.96           calculate D2E/DX2 analytically  !
 ! A1    A(1,2,3)              129.5558         calculate D2E/DX2 analytically  !
 ! A2    L(3,4,5,-3,-1)        180.0            calculate D2E/DX2 analytically  !
 ! A3    L(3,4,5,-1,-2)        180.0            calculate D2E/DX2 analytically  !
 ! A4    L(2,3,4,1,-1)         179.1693         calculate D2E/DX2 analytically  !
 ! A5    L(2,3,4,1,-2)         180.0            calculate D2E/DX2 analytically  !
 --------------------------------------------------------------------------------
 Trust Radius=3.00D-01 FncErr=1.00D-07 GrdErr=1.00D-06
 Number of steps in this run= 100 maximum allowed number of steps= 100.
 Search for a saddle point of order  1.
 GradGradGradGradGradGradGradGradGradGradGradGradGradGradGradGradGradGrad

                          Input orientation:                          
 ---------------------------------------------------------------------
 Center     Atomic      Atomic             Coordinates (Angstroms)
 Number     Number       Type             X           Y           Z
 ---------------------------------------------------------------------
      1          8           0       -0.457493   -0.423123    0.000000
      2          8           0        0.762043    0.027135    0.000000
      3          1           0        1.252447    1.428186    0.000000
      4          8           0        1.671447    2.683307    0.000000
      5          1           0        1.975435    3.593906    0.000000
 ---------------------------------------------------------------------
                    Distance matrix (angstroms):
                    1          2          3          4          5
     1  O    0.000000
     2  O    1.300000   0.000000
     3  H    2.520166   1.484398   0.000000
     4  O    3.765939   2.807537   1.323212   0.000000
     5  H    4.696346   3.767516   2.283212   0.960000   0.000000
 Stoichiometry    H2O3
 Framework group  CS[SG(H2O3)]
 Deg. of freedom     7
 Full point group                 CS      NOp   2
 Largest Abelian subgroup         CS      NOp   2
 Largest concise Abelian subgroup C1      NOp   1
                         Standard orientation:                         
 ---------------------------------------------------------------------
 Center     Atomic      Atomic             Coordinates (Angstroms)
 Number     Number       Type             X           Y           Z
 ---------------------------------------------------------------------
      1          8           0       -0.073762   -1.775498    0.000000
      2          8           0       -0.629976   -0.600498    0.000000
      3          1           0        0.000000    0.743589    0.000000
      4          8           0        0.578880    1.933458    0.000000
      5          1           0        0.998861    2.796716    0.000000
 ---------------------------------------------------------------------
 Rotational constants (GHZ):     87.4605307      3.8525867      3.6900424
 Standard basis: 6-31+G(d,p) (6D, 7F)
 There are    50 symmetry adapted basis functions of A'  symmetry.
 There are    17 symmetry adapted basis functions of A"  symmetry.
 Integral buffers will be    262144 words long.
 Raffenetti 2 integral format.
 Two-electron integral symmetry is turned on.
    67 basis functions,   110 primitive gaussians,    67 cartesian basis functions
    13 alpha electrons       13 beta electrons
       nuclear repulsion energy        61.5056554932 Hartrees.
 NAtoms=    5 NActive=    5 NUniq=    5 SFac= 7.50D-01 NAtFMM=   80 NAOKFM=F Big=F
 One-electron integrals computed using PRISM.
 NBasis=    67 RedAO= T  NBF=    50    17
 NBsUse=    67 1.00D-06 NBFU=    50    17
 Harris functional with IExCor= 1009 diagonalized for initial guess.
 ExpMin= 8.45D-02 ExpMax= 5.48D+03 ExpMxC= 8.25D+02 IAcc=2 IRadAn=         0 AccDes= 0.00D+00
 HarFok:  IExCor= 1009 AccDes= 0.00D+00 IRadAn=         0 IDoV= 1
 ScaDFX=  1.000000  1.000000  1.000000  1.000000
 FoFCou: FMM=F IPFlag=           0 FMFlag=      100000 FMFlg1=           0
         NFxFlg=           0 DoJE=T BraDBF=F KetDBF=T FulRan=T
         Omega=  0.000000  0.000000  1.000000  0.000000  0.000000 ICntrl=     500 IOpCl=  0
         NMat0=    1 NMatS0=    1 NMatT0=    0 NMatD0=    1 NMtDS0=    0 NMtDT0=    0
         I1Cent=           4 NGrid=           0.
 Petite list used in FoFCou.
 Initial guess orbital symmetries:
       Occupied  (A') (A') (A') (A') (A') (A') (A') (A') (A') (A")
                 (A") (A') (A')
       Virtual   (A") (A') (A') (A') (A') (A") (A') (A') (A") (A')
                 (A') (A') (A") (A') (A') (A') (A') (A') (A") (A')
                 (A") (A') (A') (A") (A') (A') (A') (A') (A") (A')
                 (A') (A") (A') (A") (A') (A") (A') (A') (A") (A')
                 (A') (A") (A') (A') (A") (A') (A") (A') (A') (A')
                 (A') (A') (A') (A')
 The electronic state of the initial guess is 1-A'.
 Requested convergence on RMS density matrix=1.00D-08 within 128 cycles.
 Requested convergence on MAX density matrix=1.00D-06.
 Requested convergence on             energy=1.00D-06.
 No special actions if energy rises.
 Keep R1 ints in memory in canonical form, NReq=3551390.
 Integral accuracy reduced to 1.0D-05 until final iterations.
 Initial convergence to 1.0D-05 achieved.  Increase integral accuracy.
 SCF Done:  E(RM062X) =  -226.477389569     A.U. after   23 cycles
             Convg  =    0.7466D-08             -V/T =  2.0112
 Range of M.O.s used for correlation:     1    67
 NBasis=    67 NAE=    13 NBE=    13 NFC=     0 NFV=     0
 NROrb=     67 NOA=    13 NOB=    13 NVA=    54 NVB=    54

 **** Warning!!: The largest alpha MO coefficient is  0.15374595D+02

 Symmetrizing basis deriv contribution to polar:
 IMax=3 JMax=2 DiffMx= 0.00D+00
 G2DrvN: will do     6 centers at a time, making    1 passes doing MaxLOS=2.
 Calling FoFCou, ICntrl=  3107 FMM=F I1Cent=   0 AccDes= 0.00D+00.
 FoFDir/FoFCou used for L=0 through L=2.
 End of G2Drv Frequency-dependent properties file   721 does not exist.
 End of G2Drv Frequency-dependent properties file   722 does not exist.
          IDoAtm=11111
          Differentiating once with respect to nuclear coordinates.
          Keep R1 ints in memory in canonical form, NReq=3416970.
          There are    18 degrees of freedom in the 1st order CPHF.  IDoFFX=5.
     12 vectors produced by pass  0 Test12= 3.90D-11 5.56D-07 XBig12= 1.15D-01 2.58D-01.
 AX will form    12 AO Fock derivatives at one time.
     12 vectors produced by pass  1 Test12= 3.90D-11 5.56D-07 XBig12= 7.23D-03 4.43D-02.
     12 vectors produced by pass  2 Test12= 3.90D-11 5.56D-07 XBig12= 1.96D-04 4.06D-03.
     12 vectors produced by pass  3 Test12= 3.90D-11 5.56D-07 XBig12= 4.05D-06 9.78D-04.
     12 vectors produced by pass  4 Test12= 3.90D-11 5.56D-07 XBig12= 1.47D-07 1.05D-04.
      6 vectors produced by pass  5 Test12= 3.90D-11 5.56D-07 XBig12= 4.12D-10 6.75D-06.
 Inverted reduced A of dimension    66 with in-core refinement.
 End of Minotr Frequency-dependent properties file   721 does not exist.
 End of Minotr Frequency-dependent properties file   722 does not exist.

 **********************************************************************

            Population analysis using the SCF density.

 **********************************************************************

 Orbital symmetries:
       Occupied  (A') (A') (A') (A') (A') (A') (A') (A') (A") (A')
                 (A') (A') (A")
       Virtual   (A") (A') (A') (A') (A") (A') (A') (A') (A") (A')
                 (A') (A") (A') (A') (A') (A') (A') (A') (A") (A')
                 (A') (A") (A') (A') (A') (A") (A') (A') (A") (A')
                 (A') (A") (A') (A") (A') (A') (A") (A") (A') (A')
                 (A') (A") (A') (A') (A") (A') (A") (A') (A') (A')
                 (A') (A') (A') (A')
 The electronic state is 1-A'.
 Alpha  occ. eigenvalues --  -19.89776 -19.89026 -19.59625  -1.42107  -1.03222
 Alpha  occ. eigenvalues --   -1.01436  -0.69599  -0.65706  -0.62523  -0.55006
 Alpha  occ. eigenvalues --   -0.43806  -0.33547  -0.33076
 Alpha virt. eigenvalues --   -0.21686   0.02354   0.06859   0.10792   0.12248
 Alpha virt. eigenvalues --    0.13939   0.15971   0.17860   0.19282   0.19725
 Alpha virt. eigenvalues --    0.22464   0.24271   0.25378   0.32244   0.34025
 Alpha virt. eigenvalues --    0.41098   1.01212   1.05386   1.06560   1.08677
 Alpha virt. eigenvalues --    1.11654   1.13888   1.14962   1.22722   1.23206
 Alpha virt. eigenvalues --    1.24099   1.24627   1.40012   1.43523   1.45477
 Alpha virt. eigenvalues --    1.51960   1.52757   1.58008   1.59532   1.60472
 Alpha virt. eigenvalues --    1.82719   1.85888   1.91403   1.91455   1.95042
 Alpha virt. eigenvalues --    2.15812   2.21016   2.26695   2.36491   2.45279
 Alpha virt. eigenvalues --    2.56961   2.78664   2.79359   2.97416   3.12048
 Alpha virt. eigenvalues --    3.65689   3.78016   4.06462   4.46259
          Condensed to atoms (all electrons):
              1          2          3          4          5
     1  O    7.574138   0.333942  -0.006434   0.000648  -0.000163
     2  O    0.333942   7.663386   0.039389   0.005515   0.002631
     3  H   -0.006434   0.039389   0.244604   0.201778  -0.013042
     4  O    0.000648   0.005515   0.201778   8.515947   0.288953
     5  H   -0.000163   0.002631  -0.013042   0.288953   0.295494
 Mulliken atomic charges:
              1
     1  O    0.097869
     2  O   -0.044863
     3  H    0.533706
     4  O   -1.012840
     5  H    0.426128
 Sum of Mulliken atomic charges =   0.00000
 Mulliken charges with hydrogens summed into heavy atoms:
              1
     1  O    0.097869
     2  O   -0.044863
     4  O   -0.053007
 Sum of Mulliken charges with hydrogens summed into heavy atoms =   0.00000
 APT atomic charges:
              1
     1  O    0.267250
     2  O   -0.234149
     3  H    0.392238
     4  O   -1.412330
     5  H    0.986991
 Sum of APT charges=   0.00000
 APT Atomic charges with hydrogens summed into heavy atoms:
              1
     1  O    0.267250
     2  O   -0.234149
     3  H    0.000000
     4  O   -0.033101
     5  H    0.000000
 Sum of APT charges=   0.00000
 Electronic spatial extent (au):  <R**2>=            300.4597
 Charge=              0.0000 electrons
 Dipole moment (field-independent basis, Debye):
    X=             -0.6180    Y=             -2.3211    Z=              0.0000  Tot=              2.4019
 Quadrupole moment (field-independent basis, Debye-Ang):
   XX=            -18.4761   YY=            -15.8432   ZZ=            -17.8230
   XY=              1.1799   XZ=              0.0000   YZ=              0.0000
 Traceless Quadrupole moment (field-independent basis, Debye-Ang):
   XX=             -1.0953   YY=              1.5376   ZZ=             -0.4423
   XY=              1.1799   XZ=              0.0000   YZ=              0.0000
 Octapole moment (field-independent basis, Debye-Ang**2):
  XXX=             -1.2228  YYY=              6.4689  ZZZ=              0.0000  XYY=              9.1864
  XXY=              0.8974  XXZ=              0.0000  XZZ=             -1.4506  YZZ=             -5.3233
  YYZ=              0.0000  XYZ=              0.0000
 Hexadecapole moment (field-independent basis, Debye-Ang**3):
 XXXX=            -45.0954 YYYY=           -210.7274 ZZZZ=            -15.7967 XXXY=            -30.3784
 XXXZ=              0.0000 YYYX=              0.7681 YYYZ=              0.0000 ZZZX=              0.0000
 ZZZY=              0.0000 XXYY=            -45.2519 XXZZ=            -10.1918 YYZZ=            -52.4867
 XXYZ=              0.0000 YYXZ=              0.0000 ZZXY=            -11.7656
 N-N= 6.150565549321D+01 E-N=-6.565812093432D+02  KE= 2.239695796939D+02
 Symmetry A'   KE= 2.152827338639D+02
 Symmetry A"   KE= 8.686845829977D+00
  Exact polarizability:   0.000   0.000   0.000   0.000   0.000   0.000
 Approx polarizability:  20.041   8.079  76.066   0.000   0.000  12.652
 Calling FoFJK, ICntrl=    100147 FMM=F ISym2X=1 I1Cent= 0 IOpClX= 0 NMat=1 NMatS=1 NMatT=0.
 ***** Axes restored to original set *****
 -------------------------------------------------------------------
 Center     Atomic                   Forces (Hartrees/Bohr)
 Number     Number              X              Y              Z
 -------------------------------------------------------------------
      1        8           0.120134010    0.055192848    0.000000000
      2        8          -0.104455455   -0.040348821    0.000000000
      3        1           0.021508626    0.098404510    0.000000000
      4        8          -0.034764283   -0.102581750    0.000000000
      5        1          -0.002422899   -0.010666787    0.000000000
 -------------------------------------------------------------------
 Cartesian Forces:  Max     0.120134010 RMS     0.058886722

 GradGradGradGradGradGradGradGradGradGradGradGradGradGradGradGradGradGrad
 Berny optimization.
 Internal  Forces:  Max     0.131842583 RMS     0.060282316
 Search for a saddle point.
 Step number   1 out of a maximum of  100
 All quantities printed in internal units (Hartrees-Bohrs-Radians)
 Swaping is turned off.
 Second derivative matrix not updated -- analytic derivatives used.
 The second derivative matrix:
                          R1        R2        R3        R4        A1
           R1           0.39557
           R2           0.02220  -0.01296
           R3          -0.01177   0.05143  -0.00203
           R4          -0.00633   0.00311  -0.01751   0.56951
           A1           0.00791  -0.02462   0.01867   0.00028   0.05139
           A2          -0.00135   0.00178   0.00022  -0.00052  -0.00215
           A3           0.00000   0.00000   0.00000   0.00000   0.00000
           A4          -0.00347   0.00482   0.00174   0.00000  -0.00140
           A5           0.00000   0.00000   0.00000   0.00000   0.00000
                          A2        A3        A4        A5
           A2          -0.12597
           A3           0.00000  -0.11091
           A4           0.01199   0.00000   0.01537
           A5           0.00000   0.00485   0.00000   0.00162
     Eigenvalues ---   -0.12702  -0.11112  -0.06898   0.00183   0.01558
     Eigenvalues ---    0.04412   0.06000   0.39693   0.57025
 Eigenvectors required to have negative eigenvalues:
                          A2        A4        R2        A1        R3
   1                    0.99639  -0.08337  -0.01203   0.00922   0.00336
                          R1        R4        A3        A5
   1                    0.00247   0.00090   0.00000   0.00000
 RFO step:  Lambda0=5.847088815D-06 Lambda=-1.45608260D-01.
 Linear search not attempted -- option 19 set.
 Maximum step size (   0.300) exceeded in Quadratic search.
    -- Step size scaled by   0.275
 Iteration  1 RMS(Cart)=  0.10761129 RMS(Int)=  0.00809092
 Iteration  2 RMS(Cart)=  0.00898747 RMS(Int)=  0.00002394
 Iteration  3 RMS(Cart)=  0.00002452 RMS(Int)=  0.00000000
 Iteration  4 RMS(Cart)=  0.00000000 RMS(Int)=  0.00000000
 ClnCor:  largest displacement from symmetrization is 1.46D-01 for atom     4.
          Exceeds limit of 1.00D-01 so symmetrization was rejected.
 Variable       Old X    -DE/DX   Delta X   Delta X   Delta X     New X
                                 (Linear)    (Quad)   (Total)
    R1        2.45664  -0.13184   0.00000  -0.07080  -0.07080   2.38584
    R2        2.80511  -0.01918   0.00000   0.00992   0.00992   2.81502
    R3        2.50051  -0.11919   0.00000  -0.20485  -0.20485   2.29566
    R4        1.81414  -0.01088   0.00000  -0.00964  -0.00964   1.80450
    A1        2.26117  -0.02487   0.00000  -0.01997  -0.01997   2.24120
    A2        3.14159   0.00186   0.00000  -0.00011  -0.00011   3.14148
    A3        3.14159   0.00000   0.00000   0.20569   0.20569   3.34728
    A4        3.12709   0.00312   0.00000   0.00687   0.00687   3.13397
    A5        3.14159   0.00000   0.00000  -0.00885  -0.00885   3.13275
         Item               Value     Threshold  Converged?
 Maximum Force            0.131843     0.000450     NO 
 RMS     Force            0.060282     0.000300     NO 
 Maximum Displacement     0.146357     0.001800     NO 
 RMS     Displacement     0.114275     0.001200     NO 
 Predicted change in Energy=-3.578973D-02
 GradGradGradGradGradGradGradGradGradGradGradGradGradGradGradGradGradGrad

                          Input orientation:                          
 ---------------------------------------------------------------------
 Center     Atomic      Atomic             Coordinates (Angstroms)
 Number     Number       Type             X           Y           Z
 ---------------------------------------------------------------------
      1          8           0       -0.414045   -0.361219    0.000728
      2          8           0        0.774728    0.062475   -0.035242
      3          1           0        1.257661    1.470422    0.023976
      4          8           0        1.642970    2.621275    0.077243
      5          1           0        1.942566    3.516457   -0.066705
 ---------------------------------------------------------------------
                    Distance matrix (angstroms):
                    1          2          3          4          5
     1  O    0.000000
     2  O    1.262534   0.000000
     3  H    2.479929   1.489646   0.000000
     4  O    3.623871   2.704433   1.214811   0.000000
     5  H    4.538121   3.646207   2.159532   0.954898   0.000000
 Stoichiometry    H2O3
 Framework group  C1[X(H2O3)]
 Deg. of freedom     9
 Full point group                 C1      NOp   1
 Omega: Change in point group or standard orientation.

 Old FWG=CS   [SG(H2O3)]
 New FWG=C01  [X(H2O3)]
 Largest Abelian subgroup         C1      NOp   1
 Largest concise Abelian subgroup C1      NOp   1
                         Standard orientation:                         
 ---------------------------------------------------------------------
 Center     Atomic      Atomic             Coordinates (Angstroms)
 Number     Number       Type             X           Y           Z
 ---------------------------------------------------------------------
      1          8           0       -1.677511   -0.351977    0.000104
      2          8           0       -0.710296    0.459468    0.006732
      3          1           0        0.748922    0.160281   -0.007905
      4          8           0        1.936989   -0.092684   -0.024337
      5          1           0        2.857611   -0.278732    0.147919
 ---------------------------------------------------------------------
 Rotational constants (GHZ):     89.8279191      4.1537964      3.9720853
 Standard basis: 6-31+G(d,p) (6D, 7F)
 There are    67 symmetry adapted basis functions of A   symmetry.
 Integral buffers will be    262144 words long.
 Raffenetti 2 integral format.
 Two-electron integral symmetry is turned on.
    67 basis functions,   110 primitive gaussians,    67 cartesian basis functions
    13 alpha electrons       13 beta electrons
       nuclear repulsion energy        63.4995432750 Hartrees.
 NAtoms=    5 NActive=    5 NUniq=    5 SFac= 7.50D-01 NAtFMM=   80 NAOKFM=F Big=F
 One-electron integrals computed using PRISM.
 NBasis=    67 RedAO= T  NBF=    67
 NBsUse=    67 1.00D-06 NBFU=    67
 Initial guess read from the read-write file.
 B after Tr=     0.000000    0.000000    0.000000
         Rot=    1.000000    0.000000    0.000000    0.000000 Ang=   0.00 deg.
 Initial guess orbital symmetries:
       Occupied  (A) (A) (A) (A) (A) (A) (A) (A) (A) (A) (A) (A)
                 (A)
       Virtual   (A) (A) (A) (A) (A) (A) (A) (A) (A) (A) (A) (A)
                 (A) (A) (A) (A) (A) (A) (A) (A) (A) (A) (A) (A)
                 (A) (A) (A) (A) (A) (A) (A) (A) (A) (A) (A) (A)
                 (A) (A) (A) (A) (A) (A) (A) (A) (A) (A) (A) (A)
                 (A) (A) (A) (A) (A) (A)
 Harris functional with IExCor= 1009 diagonalized for initial guess.
 ExpMin= 8.45D-02 ExpMax= 5.48D+03 ExpMxC= 8.25D+02 IAcc=2 IRadAn=         0 AccDes= 0.00D+00
 HarFok:  IExCor= 1009 AccDes= 0.00D+00 IRadAn=         0 IDoV= 1
 ScaDFX=  1.000000  1.000000  1.000000  1.000000
 FoFCou: FMM=F IPFlag=           0 FMFlag=      100000 FMFlg1=           0
         NFxFlg=           0 DoJE=T BraDBF=F KetDBF=T FulRan=T
         Omega=  0.000000  0.000000  1.000000  0.000000  0.000000 ICntrl=     500 IOpCl=  0
         NMat0=    1 NMatS0=    1 NMatT0=    0 NMatD0=    1 NMtDS0=    0 NMtDT0=    0
         I1Cent=           4 NGrid=           0.
 Petite list used in FoFCou.
 Requested convergence on RMS density matrix=1.00D-08 within 128 cycles.
 Requested convergence on MAX density matrix=1.00D-06.
 Requested convergence on             energy=1.00D-06.
 No special actions if energy rises.
 Keep R1 ints in memory in canonical form, NReq=3551234.
 Integral accuracy reduced to 1.0D-05 until final iterations.
 Initial convergence to 1.0D-05 achieved.  Increase integral accuracy.
 SCF Done:  E(RM062X) =  -226.512566330     A.U. after   30 cycles
             Convg  =    0.8759D-08             -V/T =  2.0104
 Calling FoFJK, ICntrl=      2127 FMM=F ISym2X=0 I1Cent= 0 IOpClX= 0 NMat=1 NMatS=1 NMatT=0.
 ***** Axes restored to original set *****
 -------------------------------------------------------------------
 Center     Atomic                   Forces (Hartrees/Bohr)
 Number     Number              X              Y              Z
 -------------------------------------------------------------------
      1        8           0.091051169    0.041060720   -0.002016680
      2        8          -0.081358608   -0.037014551    0.002002465
      3        1           0.025642380    0.103834016   -0.005408513
      4        8          -0.032998581   -0.098149479    0.016931231
      5        1          -0.002336360   -0.009730706   -0.011508503
 -------------------------------------------------------------------
 Cartesian Forces:  Max     0.103834016 RMS     0.052079072

 GradGradGradGradGradGradGradGradGradGradGradGradGradGradGradGradGradGrad
 Berny optimization.
 Internal  Forces:  Max     0.113191646 RMS     0.051331730
 Search for a saddle point.
 Step number   2 out of a maximum of  100
 All quantities printed in internal units (Hartrees-Bohrs-Radians)
 Swaping is turned off.
 Update second derivatives using D2CorX and points    1    2
 The second derivative matrix:
                          R1        R2        R3        R4        A1
           R1           0.41075
           R2           0.02277  -0.01298
           R3           0.00874   0.05255   0.02258
           R4          -0.00350   0.00321  -0.01359   0.57003
           A1           0.00769  -0.02456   0.01777   0.00026   0.05128
           A2          -0.00350   0.00173  -0.00298  -0.00091  -0.00217
           A3          -0.00728  -0.00083  -0.00496  -0.00151   0.00104
           A4          -0.00543   0.00476  -0.00098  -0.00037  -0.00138
           A5           0.00173   0.00007   0.00231   0.00032  -0.00003
                          A2        A3        A4        A5
           A2          -0.12569
           A3           0.00149  -0.11510
           A4           0.01226   0.00105   0.01563
           A5          -0.00025   0.00406  -0.00022   0.00182
     Eigenvalues ---   -0.12702  -0.11546  -0.05972   0.00192   0.01660
     Eigenvalues ---    0.05911   0.05987   0.41256   0.57046
 Eigenvectors required to have negative eigenvalues:
                          A2        A3        A4        R3        R2
   1                    0.99014  -0.10773  -0.08317   0.02248  -0.02226
                          A1        A5        R1        R4
   1                    0.00654   0.00469   0.00463   0.00158
 RFO step:  Lambda0=1.993896203D-04 Lambda=-1.30502534D-01.
 Linear search not attempted -- option 19 set.
 Maximum step size (   0.300) exceeded in Quadratic search.
    -- Step size scaled by   0.284
 Iteration  1 RMS(Cart)=  0.10288800 RMS(Int)=  0.00984914
 Iteration  2 RMS(Cart)=  0.01174905 RMS(Int)=  0.00010486
 Iteration  3 RMS(Cart)=  0.00009525 RMS(Int)=  0.00000001
 Iteration  4 RMS(Cart)=  0.00000001 RMS(Int)=  0.00000000
 Variable       Old X    -DE/DX   Delta X   Delta X   Delta X     New X
                                 (Linear)    (Quad)   (Total)
    R1        2.38584  -0.09953   0.00000  -0.04696  -0.04696   2.33888
    R2        2.81502  -0.00699   0.00000   0.03519   0.03519   2.85022
    R3        2.29566  -0.11319   0.00000  -0.18901  -0.18901   2.10665
    R4        1.80450  -0.00813   0.00000  -0.00669  -0.00669   1.79781
    A1        2.24120  -0.01962   0.00000  -0.01473  -0.01473   2.22647
    A2        3.14148   0.00053   0.00000   0.04056   0.04056   3.18204
    A3        3.34728   0.02219   0.00000   0.22113   0.22113   3.56842
    A4        3.13397   0.00214   0.00000  -0.00344  -0.00344   3.13053
    A5        3.13275  -0.00022   0.00000  -0.00370  -0.00370   3.12904
         Item               Value     Threshold  Converged?
 Maximum Force            0.113192     0.000450     NO 
 RMS     Force            0.051332     0.000300     NO 
 Maximum Displacement     0.167312     0.001800     NO 
 RMS     Displacement     0.112997     0.001200     NO 
 Predicted change in Energy=-3.308193D-02
 GradGradGradGradGradGradGradGradGradGradGradGradGradGradGradGradGradGrad

                          Input orientation:                          
 ---------------------------------------------------------------------
 Center     Atomic      Atomic             Coordinates (Angstroms)
 Number     Number       Type             X           Y           Z
 ---------------------------------------------------------------------
      1          8           0       -0.376801   -0.317432    0.003212
      2          8           0        0.786356    0.098025   -0.076277
      3          1           0        1.264872    1.522543    0.052754
      4          8           0        1.607589    2.578355    0.155545
      5          1           0        1.921864    3.427920   -0.135235
 ---------------------------------------------------------------------
                    Distance matrix (angstroms):
                    1          2          3          4          5
     1  O    0.000000
     2  O    1.237683   0.000000
     3  H    2.466384   1.508270   0.000000
     4  O    3.513772   2.623014   1.114792   0.000000
     5  H    4.396668   3.518672   2.024213   0.951358   0.000000
 Stoichiometry    H2O3
 Framework group  C1[X(H2O3)]
 Deg. of freedom     9
 Full point group                 C1      NOp   1
 Largest Abelian subgroup         C1      NOp   1
 Largest concise Abelian subgroup C1      NOp   1
                         Standard orientation:                         
 ---------------------------------------------------------------------
 Center     Atomic      Atomic             Coordinates (Angstroms)
 Number     Number       Type             X           Y           Z
 ---------------------------------------------------------------------
      1          8           0       -1.630074   -0.345835    0.002895
      2          8           0       -0.687538    0.456310    0.009802
      3          1           0        0.787405    0.142370   -0.019594
      4          8           0        1.874835   -0.101531   -0.047294
      5          1           0        2.754805   -0.213922    0.296368
 ---------------------------------------------------------------------
 Rotational constants (GHZ):     90.3792791      4.4162419      4.2188081
 Standard basis: 6-31+G(d,p) (6D, 7F)
 There are    67 symmetry adapted basis functions of A   symmetry.
 Integral buffers will be    262144 words long.
 Raffenetti 2 integral format.
 Two-electron integral symmetry is turned on.
    67 basis functions,   110 primitive gaussians,    67 cartesian basis functions
    13 alpha electrons       13 beta electrons
       nuclear repulsion energy        65.1116160739 Hartrees.
 NAtoms=    5 NActive=    5 NUniq=    5 SFac= 7.50D-01 NAtFMM=   80 NAOKFM=F Big=F
 One-electron integrals computed using PRISM.
 NBasis=    67 RedAO= T  NBF=    67
 NBsUse=    67 1.00D-06 NBFU=    67
 Initial guess read from the read-write file.
 B after Tr=     0.000000    0.000000    0.000000
         Rot=    1.000000    0.000000    0.000000    0.000000 Ang=   0.00 deg.
 Initial guess orbital symmetries:
       Occupied  (A) (A) (A) (A) (A) (A) (A) (A) (A) (A) (A) (A)
                 (A)
       Virtual   (A) (A) (A) (A) (A) (A) (A) (A) (A) (A) (A) (A)
                 (A) (A) (A) (A) (A) (A) (A) (A) (A) (A) (A) (A)
                 (A) (A) (A) (A) (A) (A) (A) (A) (A) (A) (A) (A)
                 (A) (A) (A) (A) (A) (A) (A) (A) (A) (A) (A) (A)
                 (A) (A) (A) (A) (A) (A)
 Harris functional with IExCor= 1009 diagonalized for initial guess.
 ExpMin= 8.45D-02 ExpMax= 5.48D+03 ExpMxC= 8.25D+02 IAcc=2 IRadAn=         0 AccDes= 0.00D+00
 HarFok:  IExCor= 1009 AccDes= 0.00D+00 IRadAn=         0 IDoV= 1
 ScaDFX=  1.000000  1.000000  1.000000  1.000000
 FoFCou: FMM=F IPFlag=           0 FMFlag=      100000 FMFlg1=           0
         NFxFlg=           0 DoJE=T BraDBF=F KetDBF=T FulRan=T
         Omega=  0.000000  0.000000  1.000000  0.000000  0.000000 ICntrl=     500 IOpCl=  0
         NMat0=    1 NMatS0=    1 NMatT0=    0 NMatD0=    1 NMtDS0=    0 NMtDT0=    0
         I1Cent=           4 NGrid=           0.
 Petite list used in FoFCou.
 Requested convergence on RMS density matrix=1.00D-08 within 128 cycles.
 Requested convergence on MAX density matrix=1.00D-06.
 Requested convergence on             energy=1.00D-06.
 No special actions if energy rises.
 Keep R1 ints in memory in canonical form, NReq=3551234.
 Integral accuracy reduced to 1.0D-05 until final iterations.
 Initial convergence to 1.0D-05 achieved.  Increase integral accuracy.
 SCF Done:  E(RM062X) =  -226.543302825     A.U. after   27 cycles
             Convg  =    0.7351D-08             -V/T =  2.0096
 Calling FoFJK, ICntrl=      2127 FMM=F ISym2X=0 I1Cent= 0 IOpClX= 0 NMat=1 NMatS=1 NMatT=0.
 ***** Axes restored to original set *****
 -------------------------------------------------------------------
 Center     Atomic                   Forces (Hartrees/Bohr)
 Number     Number              X              Y              Z
 -------------------------------------------------------------------
      1        8           0.063296674    0.028738105   -0.003213597
      2        8          -0.059615038   -0.034936211    0.002575222
      3        1           0.025896933    0.093450987   -0.010473002
      4        8          -0.028486801   -0.075746617    0.030603100
      5        1          -0.001091768   -0.011506264   -0.019491723
 -------------------------------------------------------------------
 Cartesian Forces:  Max     0.093450987 RMS     0.042533384

 GradGradGradGradGradGradGradGradGradGradGradGradGradGradGradGradGradGrad
 Berny optimization.
 Internal  Forces:  Max     0.090803860 RMS     0.040418905
 Search for a saddle point.
 Step number   3 out of a maximum of  100
 All quantities printed in internal units (Hartrees-Bohrs-Radians)
 Swaping is turned off.
 Update second derivatives using D2CorX and points    1    2    3
 The second derivative matrix:
                          R1        R2        R3        R4        A1
           R1           0.42201
           R2           0.02287  -0.01315
           R3           0.03392   0.05320   0.07777
           R4          -0.00078   0.00320  -0.00743   0.57069
           A1           0.00756  -0.02447   0.01727   0.00024   0.05123
           A2          -0.00768   0.00161  -0.01215  -0.00193  -0.00209
           A3          -0.02078  -0.00182  -0.03294  -0.00492   0.00166
           A4          -0.00783   0.00480  -0.00651  -0.00093  -0.00139
           A5           0.00185   0.00009   0.00254   0.00036  -0.00004
                          A2        A3        A4        A5
           A2          -0.12419
           A3           0.00614  -0.10336
           A4           0.01318   0.00427   0.01611
           A5          -0.00029   0.00402  -0.00026   0.00182
     Eigenvalues ---   -0.12699  -0.11041  -0.04482   0.00196   0.01762
     Eigenvalues ---    0.05974   0.10225   0.42873   0.57085
 Eigenvectors required to have negative eigenvalues:
                          A2        A3        A4        R3        R2
   1                    0.97598  -0.19785  -0.08145   0.02923  -0.02684
                          A5        A1        R1        R4
   1                    0.00757   0.00597   0.00422   0.00163
 RFO step:  Lambda0=6.455243072D-04 Lambda=-1.14885061D-01.
 Linear search not attempted -- option 19 set.
 Maximum step size (   0.300) exceeded in Quadratic search.
    -- Step size scaled by   0.304
 Iteration  1 RMS(Cart)=  0.08276048 RMS(Int)=  0.02033090
 Iteration  2 RMS(Cart)=  0.02457771 RMS(Int)=  0.00063008
 Iteration  3 RMS(Cart)=  0.00054541 RMS(Int)=  0.00000006
 Iteration  4 RMS(Cart)=  0.00000008 RMS(Int)=  0.00000000
 Variable       Old X    -DE/DX   Delta X   Delta X   Delta X     New X
                                 (Linear)    (Quad)   (Total)
    R1        2.33888  -0.06911   0.00000  -0.02445  -0.02445   2.31443
    R2        2.85022   0.00462   0.00000   0.06814   0.06814   2.91836
    R3        2.10665  -0.09080   0.00000  -0.10930  -0.10930   1.99736
    R4        1.79781  -0.00469   0.00000  -0.00161  -0.00161   1.79620
    A1        2.22647  -0.01467   0.00000  -0.00789  -0.00789   2.21858
    A2        3.18204   0.00149   0.00000   0.07730   0.07730   3.25934
    A3        3.56842   0.03768   0.00000   0.25691   0.25691   3.82532
    A4        3.13053  -0.00108   0.00000  -0.02710  -0.02710   3.10343
    A5        3.12904  -0.00053   0.00000  -0.00608  -0.00608   3.12296
         Item               Value     Threshold  Converged?
 Maximum Force            0.090804     0.000450     NO 
 RMS     Force            0.040419     0.000300     NO 
 Maximum Displacement     0.161674     0.001800     NO 
 RMS     Displacement     0.105241     0.001200     NO 
 Predicted change in Energy=-2.423347D-02
 GradGradGradGradGradGradGradGradGradGradGradGradGradGradGradGradGradGrad

                          Input orientation:                          
 ---------------------------------------------------------------------
 Center     Atomic      Atomic             Coordinates (Angstroms)
 Number     Number       Type             X           Y           Z
 ---------------------------------------------------------------------
      1          8           0       -0.353615   -0.298215    0.006187
      2          8           0        0.789953    0.121033   -0.122177
      3          1           0        1.279303    1.571351    0.082938
      4          8           0        1.578000    2.572876    0.240673
      5          1           0        1.910238    3.342365   -0.207621
 ---------------------------------------------------------------------
                    Distance matrix (angstroms):
                    1          2          3          4          5
     1  O    0.000000
     2  O    1.224742   0.000000
     3  H    2.483462   1.544330   0.000000
     4  O    3.468325   2.600810   1.056955   0.000000
     5  H    4.292385   3.411645   1.902366   0.950507   0.000000
 Stoichiometry    H2O3
 Framework group  C1[X(H2O3)]
 Deg. of freedom     9
 Full point group                 C1      NOp   1
 Largest Abelian subgroup         C1      NOp   1
 Largest concise Abelian subgroup C1      NOp   1
                         Standard orientation:                         
 ---------------------------------------------------------------------
 Center     Atomic      Atomic             Coordinates (Angstroms)
 Number     Number       Type             X           Y           Z
 ---------------------------------------------------------------------
      1          8           0       -1.607156   -0.343635    0.011273
      2          8           0       -0.681579    0.458390    0.003739
      3          1           0        0.828740    0.138110   -0.032506
      4          8           0        1.853098   -0.120180   -0.066123
      5          1           0        2.656362   -0.094709    0.441402
 ---------------------------------------------------------------------
 Rotational constants (GHZ):     87.6963224      4.5324855      4.3284707
 Standard basis: 6-31+G(d,p) (6D, 7F)
 There are    67 symmetry adapted basis functions of A   symmetry.
 Integral buffers will be    262144 words long.
 Raffenetti 2 integral format.
 Two-electron integral symmetry is turned on.
    67 basis functions,   110 primitive gaussians,    67 cartesian basis functions
    13 alpha electrons       13 beta electrons
       nuclear repulsion energy        65.8495859745 Hartrees.
 NAtoms=    5 NActive=    5 NUniq=    5 SFac= 7.50D-01 NAtFMM=   80 NAOKFM=F Big=F
 One-electron integrals computed using PRISM.
 NBasis=    67 RedAO= T  NBF=    67
 NBsUse=    67 1.00D-06 NBFU=    67
 Initial guess read from the read-write file.
 B after Tr=     0.000000    0.000000    0.000000
         Rot=    1.000000    0.000000    0.000000    0.000000 Ang=   0.00 deg.
 Initial guess orbital symmetries:
       Occupied  (A) (A) (A) (A) (A) (A) (A) (A) (A) (A) (A) (A)
                 (A)
       Virtual   (A) (A) (A) (A) (A) (A) (A) (A) (A) (A) (A) (A)
                 (A) (A) (A) (A) (A) (A) (A) (A) (A) (A) (A) (A)
                 (A) (A) (A) (A) (A) (A) (A) (A) (A) (A) (A) (A)
                 (A) (A) (A) (A) (A) (A) (A) (A) (A) (A) (A) (A)
                 (A) (A) (A) (A) (A) (A)
 Harris functional with IExCor= 1009 diagonalized for initial guess.
 ExpMin= 8.45D-02 ExpMax= 5.48D+03 ExpMxC= 8.25D+02 IAcc=2 IRadAn=         0 AccDes= 0.00D+00
 HarFok:  IExCor= 1009 AccDes= 0.00D+00 IRadAn=         0 IDoV= 1
 ScaDFX=  1.000000  1.000000  1.000000  1.000000
 FoFCou: FMM=F IPFlag=           0 FMFlag=      100000 FMFlg1=           0
         NFxFlg=           0 DoJE=T BraDBF=F KetDBF=T FulRan=T
         Omega=  0.000000  0.000000  1.000000  0.000000  0.000000 ICntrl=     500 IOpCl=  0
         NMat0=    1 NMatS0=    1 NMatT0=    0 NMatD0=    1 NMtDS0=    0 NMtDT0=    0
         I1Cent=           4 NGrid=           0.
 Petite list used in FoFCou.
 Requested convergence on RMS density matrix=1.00D-08 within 128 cycles.
 Requested convergence on MAX density matrix=1.00D-06.
 Requested convergence on             energy=1.00D-06.
 No special actions if energy rises.
 Keep R1 ints in memory in canonical form, NReq=3551234.
 Integral accuracy reduced to 1.0D-05 until final iterations.
 Initial convergence to 1.0D-05 achieved.  Increase integral accuracy.
 SCF Done:  E(RM062X) =  -226.565168858     A.U. after   27 cycles
             Convg  =    0.7441D-08             -V/T =  2.0090
 Calling FoFJK, ICntrl=      2127 FMM=F ISym2X=0 I1Cent= 0 IOpClX= 0 NMat=1 NMatS=1 NMatT=0.
 ***** Axes restored to original set *****
 -------------------------------------------------------------------
 Center     Atomic                   Forces (Hartrees/Bohr)
 Number     Number              X              Y              Z
 -------------------------------------------------------------------
      1        8           0.045668126    0.020936263   -0.003880826
      2        8          -0.046069422   -0.033648341    0.002033504
      3        1           0.023415987    0.077796224   -0.011886766
      4        8          -0.023241891   -0.051301425    0.035703991
      5        1           0.000227200   -0.013782721   -0.021969903
 -------------------------------------------------------------------
 Cartesian Forces:  Max     0.077796224 RMS     0.034311366

 GradGradGradGradGradGradGradGradGradGradGradGradGradGradGradGradGradGrad
 Berny optimization.
 Internal  Forces:  Max     0.066327886 RMS     0.031752501
 Search for a saddle point.
 Step number   4 out of a maximum of  100
 All quantities printed in internal units (Hartrees-Bohrs-Radians)
 Swaping is turned off.
 Update second derivatives using D2CorX and points    2    3    4
 The second derivative matrix:
                          R1        R2        R3        R4        A1
           R1           0.42221
           R2           0.02289  -0.01337
           R3           0.03574   0.05297   0.09318
           R4          -0.00022   0.00301  -0.00299   0.57189
           A1           0.00745  -0.02440   0.01645   0.00004   0.05125
           A2          -0.00890   0.00181  -0.02225  -0.00481  -0.00157
           A3          -0.02394  -0.00154  -0.05980  -0.01271   0.00311
           A4          -0.00798   0.00493  -0.00755  -0.00117  -0.00137
           A5           0.00201   0.00005   0.00383   0.00072  -0.00011
                          A2        A3        A4        A5
           A2          -0.11761
           A3           0.02371  -0.05669
           A4           0.01384   0.00615   0.01612
           A5          -0.00113   0.00176  -0.00034   0.00193
     Eigenvalues ---   -0.12673  -0.08241  -0.03249   0.00196   0.01817
     Eigenvalues ---    0.05969   0.12791   0.43058   0.57222
 Eigenvectors required to have negative eigenvalues:
                          A2        A3        A4        R2        R3
   1                    0.94961  -0.30226  -0.07730  -0.02139   0.01539
                          A5        A1        R4        R1
   1                    0.01181   0.00870   0.00105   0.00081
 RFO step:  Lambda0=1.176944775D-03 Lambda=-8.27648791D-02.
 Linear search not attempted -- option 19 set.
 Maximum step size (   0.300) exceeded in Quadratic search.
    -- Step size scaled by   0.311
 Iteration  1 RMS(Cart)=  0.07618278 RMS(Int)=  0.02560420
 Iteration  2 RMS(Cart)=  0.03229558 RMS(Int)=  0.00106934
 Iteration  3 RMS(Cart)=  0.00092479 RMS(Int)=  0.00000008
 Iteration  4 RMS(Cart)=  0.00000008 RMS(Int)=  0.00000000
 Variable       Old X    -DE/DX   Delta X   Delta X   Delta X     New X
                                 (Linear)    (Quad)   (Total)
    R1        2.31443  -0.04975   0.00000  -0.01614  -0.01614   2.29829
    R2        2.91836   0.01208   0.00000   0.02052   0.02052   2.93888
    R3        1.99736  -0.06633   0.00000  -0.01118  -0.01118   1.98617
    R4        1.79620  -0.00070   0.00000   0.00547   0.00547   1.80167
    A1        2.21858  -0.01134   0.00000  -0.03196  -0.03196   2.18662
    A2        3.25934   0.00207   0.00000   0.11472   0.11472   3.37406
    A3        3.82532   0.04357   0.00000   0.27009   0.27009   4.09541
    A4        3.10343  -0.00467   0.00000  -0.04492  -0.04492   3.05851
    A5        3.12296  -0.00042   0.00000  -0.00417  -0.00417   3.11880
         Item               Value     Threshold  Converged?
 Maximum Force            0.066328     0.000450     NO 
 RMS     Force            0.031753     0.000300     NO 
 Maximum Displacement     0.179837     0.001800     NO 
 RMS     Displacement     0.104616     0.001200     NO 
 Predicted change in Energy=-1.623340D-02
 GradGradGradGradGradGradGradGradGradGradGradGradGradGradGradGradGradGrad

                          Input orientation:                          
 ---------------------------------------------------------------------
 Center     Atomic      Atomic             Coordinates (Angstroms)
 Number     Number       Type             X           Y           Z
 ---------------------------------------------------------------------
      1          8           0       -0.330761   -0.260812    0.010479
      2          8           0        0.803171    0.141827   -0.166239
      3          1           0        1.293810    1.592489    0.104791
      4          8           0        1.546898    2.588707    0.324283
      5          1           0        1.890762    3.247200   -0.273314
 ---------------------------------------------------------------------
                    Distance matrix (angstroms):
                    1          2          3          4          5
     1  O    0.000000
     2  O    1.216203   0.000000
     3  H    2.466344   1.555186   0.000000
     4  O    3.426928   2.604028   1.051038   0.000000
     5  H    4.161953   3.292060   1.799273   0.953403   0.000000
 Stoichiometry    H2O3
 Framework group  C1[X(H2O3)]
 Deg. of freedom     9
 Full point group                 C1      NOp   1
 Largest Abelian subgroup         C1      NOp   1
 Largest concise Abelian subgroup C1      NOp   1
                         Standard orientation:                         
 ---------------------------------------------------------------------
 Center     Atomic      Atomic             Coordinates (Angstroms)
 Number     Number       Type             X           Y           Z
 ---------------------------------------------------------------------
      1          8           0       -1.576836   -0.354182    0.024364
      2          8           0       -0.686257    0.473282   -0.011987
      3          1           0        0.835532    0.154353   -0.044363
      4          8           0        1.842291   -0.145871   -0.075686
      5          1           0        2.530876    0.059813    0.550832
 ---------------------------------------------------------------------
 Rotational constants (GHZ):     79.6616418      4.6393543      4.4137766
 Standard basis: 6-31+G(d,p) (6D, 7F)
 There are    67 symmetry adapted basis functions of A   symmetry.
 Integral buffers will be    262144 words long.
 Raffenetti 2 integral format.
 Two-electron integral symmetry is turned on.
    67 basis functions,   110 primitive gaussians,    67 cartesian basis functions
    13 alpha electrons       13 beta electrons
       nuclear repulsion energy        66.2392389820 Hartrees.
 NAtoms=    5 NActive=    5 NUniq=    5 SFac= 7.50D-01 NAtFMM=   80 NAOKFM=F Big=F
 One-electron integrals computed using PRISM.
 NBasis=    67 RedAO= T  NBF=    67
 NBsUse=    67 1.00D-06 NBFU=    67
 Initial guess read from the read-write file.
 B after Tr=     0.000000    0.000000    0.000000
         Rot=    1.000000    0.000000    0.000000    0.000000 Ang=   0.00 deg.
 Initial guess orbital symmetries:
       Occupied  (A) (A) (A) (A) (A) (A) (A) (A) (A) (A) (A) (A)
                 (A)
       Virtual   (A) (A) (A) (A) (A) (A) (A) (A) (A) (A) (A) (A)
                 (A) (A) (A) (A) (A) (A) (A) (A) (A) (A) (A) (A)
                 (A) (A) (A) (A) (A) (A) (A) (A) (A) (A) (A) (A)
                 (A) (A) (A) (A) (A) (A) (A) (A) (A) (A) (A) (A)
                 (A) (A) (A) (A) (A) (A)
 Harris functional with IExCor= 1009 diagonalized for initial guess.
 ExpMin= 8.45D-02 ExpMax= 5.48D+03 ExpMxC= 8.25D+02 IAcc=2 IRadAn=         0 AccDes= 0.00D+00
 HarFok:  IExCor= 1009 AccDes= 0.00D+00 IRadAn=         0 IDoV= 1
 ScaDFX=  1.000000  1.000000  1.000000  1.000000
 FoFCou: FMM=F IPFlag=           0 FMFlag=      100000 FMFlg1=           0
         NFxFlg=           0 DoJE=T BraDBF=F KetDBF=T FulRan=T
         Omega=  0.000000  0.000000  1.000000  0.000000  0.000000 ICntrl=     500 IOpCl=  0
         NMat0=    1 NMatS0=    1 NMatT0=    0 NMatD0=    1 NMtDS0=    0 NMtDT0=    0
         I1Cent=           4 NGrid=           0.
 Petite list used in FoFCou.
 Requested convergence on RMS density matrix=1.00D-08 within 128 cycles.
 Requested convergence on MAX density matrix=1.00D-06.
 Requested convergence on             energy=1.00D-06.
 No special actions if energy rises.
 Keep R1 ints in memory in canonical form, NReq=3551234.
 Integral accuracy reduced to 1.0D-05 until final iterations.
 Initial convergence to 1.0D-05 achieved.  Increase integral accuracy.
 SCF Done:  E(RM062X) =  -226.578489732     A.U. after   21 cycles
             Convg  =    0.1945D-08             -V/T =  2.0088
 Calling FoFJK, ICntrl=      2127 FMM=F ISym2X=0 I1Cent= 0 IOpClX= 0 NMat=1 NMatS=1 NMatT=0.
 ***** Axes restored to original set *****
 -------------------------------------------------------------------
 Center     Atomic                   Forces (Hartrees/Bohr)
 Number     Number              X              Y              Z
 -------------------------------------------------------------------
      1        8           0.033439314    0.014955936   -0.003854611
      2        8          -0.035867734   -0.031207443    0.000570668
      3        1           0.021192753    0.075678355   -0.002345792
      4        8          -0.019372730   -0.046727010    0.021548684
      5        1           0.000608397   -0.012699839   -0.015918948
 -------------------------------------------------------------------
 Cartesian Forces:  Max     0.075678355 RMS     0.029706823

 GradGradGradGradGradGradGradGradGradGradGradGradGradGradGradGradGradGrad
 Berny optimization.
 Internal  Forces:  Max     0.059922417 RMS     0.026747182
 Search for a saddle point.
 Step number   5 out of a maximum of  100
 All quantities printed in internal units (Hartrees-Bohrs-Radians)
 Swaping is turned off.
 Update second derivatives using D2CorX and points    3    4    5
 The second derivative matrix:
                          R1        R2        R3        R4        A1
           R1           0.42204
           R2           0.02331  -0.01380
           R3           0.03495   0.05209   0.10362
           R4          -0.00015   0.00316  -0.00429   0.57205
           A1           0.00725  -0.02371   0.01430   0.00029   0.05114
           A2          -0.00828  -0.00210  -0.00674  -0.00658  -0.00205
           A3          -0.02237  -0.01180  -0.01877  -0.01739   0.00169
           A4          -0.00823   0.00635  -0.01297  -0.00055  -0.00126
           A5           0.00199   0.00029   0.00278   0.00084  -0.00003
                          A2        A3        A4        A5
           A2          -0.10807
           A3           0.04955   0.01305
           A4           0.01079  -0.00215   0.01708
           A5          -0.00197  -0.00047  -0.00006   0.00199
     Eigenvalues ---   -0.12665  -0.04365   0.00195   0.01813   0.02422
     Eigenvalues ---    0.05954   0.12292   0.42990   0.57273
 Eigenvectors required to have negative eigenvalues:
                          A2        A3        A4        A5        A1
   1                    0.93884  -0.33540  -0.07525   0.01316   0.01247
                          R2        R3        R4        R1
   1                   -0.00941  -0.00284   0.00044  -0.00028
 RFO step:  Lambda0=7.631641952D-04 Lambda=-7.02144935D-02.
 Linear search not attempted -- option 19 set.
 Maximum step size (   0.300) exceeded in Quadratic search.
    -- Step size scaled by   0.340
 Iteration  1 RMS(Cart)=  0.06798742 RMS(Int)=  0.00687208
 Iteration  2 RMS(Cart)=  0.00706697 RMS(Int)=  0.00000554
 Iteration  3 RMS(Cart)=  0.00000385 RMS(Int)=  0.00000000
 Iteration  4 RMS(Cart)=  0.00000000 RMS(Int)=  0.00000000
 Variable       Old X    -DE/DX   Delta X   Delta X   Delta X     New X
                                 (Linear)    (Quad)   (Total)
    R1        2.29829  -0.03616   0.00000  -0.02012  -0.02012   2.27818
    R2        2.93888   0.01626   0.00000   0.21956   0.21956   3.15844
    R3        1.98617  -0.05992   0.00000  -0.16496  -0.16496   1.82121
    R4        1.80167   0.00149   0.00000   0.00141   0.00141   1.80308
    A1        2.18662  -0.00922   0.00000   0.02619   0.02619   2.21281
    A2        3.37406   0.00137   0.00000   0.05451   0.05451   3.42857
    A3        4.09541   0.03409   0.00000   0.08377   0.08377   4.17918
    A4        3.05851  -0.00500   0.00000  -0.05873  -0.05873   2.99978
    A5        3.11880  -0.00001   0.00000   0.00714   0.00714   3.12594
         Item               Value     Threshold  Converged?
 Maximum Force            0.059922     0.000450     NO 
 RMS     Force            0.026747     0.000300     NO 
 Maximum Displacement     0.148819     0.001800     NO 
 RMS     Displacement     0.071124     0.001200     NO 
 Predicted change in Energy=-1.803867D-02
 GradGradGradGradGradGradGradGradGradGradGradGradGradGradGradGradGradGrad

                          Input orientation:                          
 ---------------------------------------------------------------------
 Center     Atomic      Atomic             Coordinates (Angstroms)
 Number     Number       Type             X           Y           Z
 ---------------------------------------------------------------------
      1          8           0       -0.338052   -0.284962    0.005557
      2          8           0        0.779793    0.126251   -0.180713
      3          1           0        1.341176    1.671241    0.121512
      4          8           0        1.540106    2.587190    0.345717
      5          1           0        1.880858    3.209691   -0.292074
 ---------------------------------------------------------------------
                    Distance matrix (angstroms):
                    1          2          3          4          5
     1  O    0.000000
     2  O    1.205558   0.000000
     3  H    2.580694   1.671372   0.000000
     4  O    3.448542   2.628959   0.963745   0.000000
     5  H    4.150270   3.276026   1.682004   0.954147   0.000000
 Stoichiometry    H2O3
 Framework group  C1[X(H2O3)]
 Deg. of freedom     9
 Full point group                 C1      NOp   1
 Largest Abelian subgroup         C1      NOp   1
 Largest concise Abelian subgroup C1      NOp   1
                         Standard orientation:                         
 ---------------------------------------------------------------------
 Center     Atomic      Atomic             Coordinates (Angstroms)
 Number     Number       Type             X           Y           Z
 ---------------------------------------------------------------------
      1          8           0       -1.586144   -0.349081    0.028489
      2          8           0       -0.699621    0.466580   -0.017804
      3          1           0        0.942785    0.158745   -0.052819
      4          8           0        1.855117   -0.150961   -0.075968
      5          1           0        2.502399    0.108949    0.575085
 ---------------------------------------------------------------------
 Rotational constants (GHZ):     80.8256735      4.5722672      4.3589822
 Standard basis: 6-31+G(d,p) (6D, 7F)
 There are    67 symmetry adapted basis functions of A   symmetry.
 Integral buffers will be    262144 words long.
 Raffenetti 2 integral format.
 Two-electron integral symmetry is turned on.
    67 basis functions,   110 primitive gaussians,    67 cartesian basis functions
    13 alpha electrons       13 beta electrons
       nuclear repulsion energy        66.4255870772 Hartrees.
 NAtoms=    5 NActive=    5 NUniq=    5 SFac= 7.50D-01 NAtFMM=   80 NAOKFM=F Big=F
 One-electron integrals computed using PRISM.
 NBasis=    67 RedAO= T  NBF=    67
 NBsUse=    67 1.00D-06 NBFU=    67
 Initial guess read from the read-write file.
 B after Tr=     0.000000    0.000000    0.000000
         Rot=    1.000000    0.000000    0.000000    0.000000 Ang=   0.00 deg.
 Initial guess orbital symmetries:
       Occupied  (A) (A) (A) (A) (A) (A) (A) (A) (A) (A) (A) (A)
                 (A)
       Virtual   (A) (A) (A) (A) (A) (A) (A) (A) (A) (A) (A) (A)
                 (A) (A) (A) (A) (A) (A) (A) (A) (A) (A) (A) (A)
                 (A) (A) (A) (A) (A) (A) (A) (A) (A) (A) (A) (A)
                 (A) (A) (A) (A) (A) (A) (A) (A) (A) (A) (A) (A)
                 (A) (A) (A) (A) (A) (A)
 Harris functional with IExCor= 1009 diagonalized for initial guess.
 ExpMin= 8.45D-02 ExpMax= 5.48D+03 ExpMxC= 8.25D+02 IAcc=2 IRadAn=         0 AccDes= 0.00D+00
 HarFok:  IExCor= 1009 AccDes= 0.00D+00 IRadAn=         0 IDoV= 1
 ScaDFX=  1.000000  1.000000  1.000000  1.000000
 FoFCou: FMM=F IPFlag=           0 FMFlag=      100000 FMFlg1=           0
         NFxFlg=           0 DoJE=T BraDBF=F KetDBF=T FulRan=T
         Omega=  0.000000  0.000000  1.000000  0.000000  0.000000 ICntrl=     500 IOpCl=  0
         NMat0=    1 NMatS0=    1 NMatT0=    0 NMatD0=    1 NMtDS0=    0 NMtDT0=    0
         I1Cent=           4 NGrid=           0.
 Petite list used in FoFCou.
 Requested convergence on RMS density matrix=1.00D-08 within 128 cycles.
 Requested convergence on MAX density matrix=1.00D-06.
 Requested convergence on             energy=1.00D-06.
 No special actions if energy rises.
 Keep R1 ints in memory in canonical form, NReq=3551234.
 Integral accuracy reduced to 1.0D-05 until final iterations.
 Initial convergence to 1.0D-05 achieved.  Increase integral accuracy.
 SCF Done:  E(RM062X) =  -226.590733015     A.U. after   21 cycles
             Convg  =    0.9318D-08             -V/T =  2.0081
 Calling FoFJK, ICntrl=      2127 FMM=F ISym2X=0 I1Cent= 0 IOpClX= 0 NMat=1 NMatS=1 NMatT=0.
 ***** Axes restored to original set *****
 -------------------------------------------------------------------
 Center     Atomic                   Forces (Hartrees/Bohr)
 Number     Number              X              Y              Z
 -------------------------------------------------------------------
      1        8           0.016558443    0.007986035   -0.001668009
      2        8          -0.019942193   -0.023419106   -0.001571706
      3        1           0.006721283    0.016128028   -0.013017549
      4        8          -0.003742951    0.010772240    0.027970248
      5        1           0.000405418   -0.011467197   -0.011712984
 -------------------------------------------------------------------
 Cartesian Forces:  Max     0.027970248 RMS     0.014012716

 GradGradGradGradGradGradGradGradGradGradGradGradGradGradGradGradGradGrad
 Berny optimization.
 Internal  Forces:  Max     0.027540564 RMS     0.012419156
 Search for a saddle point.
 Step number   6 out of a maximum of  100
 All quantities printed in internal units (Hartrees-Bohrs-Radians)
 Swaping is turned off.
 Update second derivatives using D2CorX and points    4    5    6
 The second derivative matrix:
                          R1        R2        R3        R4        A1
           R1           0.42556
           R2           0.01225  -0.00566
           R3           0.06013  -0.03061   0.28252
           R4          -0.00041   0.00371  -0.00627   0.57206
           A1           0.00565  -0.01890   0.00294   0.00041   0.05182
           A2          -0.01134  -0.00672  -0.03107  -0.00652  -0.00062
           A3          -0.02761  -0.02338  -0.06121  -0.01734   0.00421
           A4          -0.00475   0.00472   0.01334  -0.00071  -0.00282
           A5           0.00168   0.00071   0.00046   0.00086   0.00010
                          A2        A3        A4        A5
           A2          -0.11350
           A3           0.03796  -0.01141
           A4           0.01290   0.00286   0.01722
           A5          -0.00198  -0.00056  -0.00018   0.00201
     Eigenvalues ---   -0.12737  -0.04440   0.00189   0.00990   0.02013
     Eigenvalues ---    0.05981   0.27424   0.45364   0.57277
 Eigenvectors required to have negative eigenvalues:
                          A2        A3        A4        R3        A5
   1                    0.95248  -0.29094  -0.08228   0.03198   0.01299
                          A1        R2        R4        R1
   1                    0.00926   0.00917   0.00181   0.00048
 RFO step:  Lambda0=3.129085954D-04 Lambda=-5.97062217D-02.
 Linear search not attempted -- option 19 set.
 Maximum step size (   0.300) exceeded in Quadratic search.
    -- Step size scaled by   0.393
 Iteration  1 RMS(Cart)=  0.08144810 RMS(Int)=  0.01071759
 Iteration  2 RMS(Cart)=  0.01598302 RMS(Int)=  0.00022064
 Iteration  3 RMS(Cart)=  0.00019603 RMS(Int)=  0.00000002
 Iteration  4 RMS(Cart)=  0.00000003 RMS(Int)=  0.00000000
 Variable       Old X    -DE/DX   Delta X   Delta X   Delta X     New X
                                 (Linear)    (Quad)   (Total)
    R1        2.27818  -0.01788   0.00000  -0.01278  -0.01278   2.26539
    R2        3.15844   0.01579   0.00000   0.17095   0.17095   3.32938
    R3        1.82121   0.00215   0.00000   0.06405   0.06405   1.88527
    R4        1.80308   0.00058   0.00000   0.00653   0.00653   1.80961
    A1        2.21281  -0.00631   0.00000  -0.00914  -0.00914   2.20367
    A2        3.42857   0.00129   0.00000   0.07905   0.07905   3.50762
    A3        4.17918   0.02754   0.00000   0.21831   0.21831   4.39750
    A4        2.99978  -0.00379   0.00000  -0.04968  -0.04968   2.95010
    A5        3.12594   0.00007   0.00000   0.00259   0.00259   3.12853
         Item               Value     Threshold  Converged?
 Maximum Force            0.027541     0.000450     NO 
 RMS     Force            0.012419     0.000300     NO 
 Maximum Displacement     0.124020     0.001800     NO 
 RMS     Displacement     0.088265     0.001200     NO 
 Predicted change in Energy=-1.130731D-02
 GradGradGradGradGradGradGradGradGradGradGradGradGradGradGradGradGradGrad

                          Input orientation:                          
 ---------------------------------------------------------------------
 Center     Atomic      Atomic             Coordinates (Angstroms)
 Number     Number       Type             X           Y           Z
 ---------------------------------------------------------------------
      1          8           0       -0.349976   -0.301189   -0.003149
      2          8           0        0.762892    0.093801   -0.209579
      3          1           0        1.377964    1.707017    0.141527
      4          8           0        1.551869    2.651601    0.411346
      5          1           0        1.861131    3.158181   -0.340144
 ---------------------------------------------------------------------
                    Distance matrix (angstroms):
                    1          2          3          4          5
     1  O    0.000000
     2  O    1.198793   0.000000
     3  H    2.653224   1.761833   0.000000
     4  O    3.536635   2.747794   0.997640   0.000000
     5  H    4.119442   3.257853   1.603539   0.957603   0.000000
 Stoichiometry    H2O3
 Framework group  C1[X(H2O3)]
 Deg. of freedom     9
 Full point group                 C1      NOp   1
 Largest Abelian subgroup         C1      NOp   1
 Largest concise Abelian subgroup C1      NOp   1
                         Standard orientation:                         
 ---------------------------------------------------------------------
 Center     Atomic      Atomic             Coordinates (Angstroms)
 Number     Number       Type             X           Y           Z
 ---------------------------------------------------------------------
      1          8           0       -1.604427   -0.361403    0.037591
      2          8           0       -0.747716    0.474271   -0.031687
      3          1           0        0.989915    0.185071   -0.064160
      4          8           0        1.924744   -0.163044   -0.078128
      5          1           0        2.429276    0.216339    0.641955
 ---------------------------------------------------------------------
 Rotational constants (GHZ):     75.2614315      4.3332716      4.1325875
 Standard basis: 6-31+G(d,p) (6D, 7F)
 There are    67 symmetry adapted basis functions of A   symmetry.
 Integral buffers will be    262144 words long.
 Raffenetti 2 integral format.
 Two-electron integral symmetry is turned on.
    67 basis functions,   110 primitive gaussians,    67 cartesian basis functions
    13 alpha electrons       13 beta electrons
       nuclear repulsion energy        65.4724565669 Hartrees.
 NAtoms=    5 NActive=    5 NUniq=    5 SFac= 7.50D-01 NAtFMM=   80 NAOKFM=F Big=F
 One-electron integrals computed using PRISM.
 NBasis=    67 RedAO= T  NBF=    67
 NBsUse=    67 1.00D-06 NBFU=    67
 Initial guess read from the read-write file.
 B after Tr=     0.000000    0.000000    0.000000
         Rot=    1.000000    0.000000    0.000000    0.000000 Ang=   0.00 deg.
 Initial guess orbital symmetries:
       Occupied  (A) (A) (A) (A) (A) (A) (A) (A) (A) (A) (A) (A)
                 (A)
       Virtual   (A) (A) (A) (A) (A) (A) (A) (A) (A) (A) (A) (A)
                 (A) (A) (A) (A) (A) (A) (A) (A) (A) (A) (A) (A)
                 (A) (A) (A) (A) (A) (A) (A) (A) (A) (A) (A) (A)
                 (A) (A) (A) (A) (A) (A) (A) (A) (A) (A) (A) (A)
                 (A) (A) (A) (A) (A) (A)
 Harris functional with IExCor= 1009 diagonalized for initial guess.
 ExpMin= 8.45D-02 ExpMax= 5.48D+03 ExpMxC= 8.25D+02 IAcc=2 IRadAn=         0 AccDes= 0.00D+00
 HarFok:  IExCor= 1009 AccDes= 0.00D+00 IRadAn=         0 IDoV= 1
 ScaDFX=  1.000000  1.000000  1.000000  1.000000
 FoFCou: FMM=F IPFlag=           0 FMFlag=      100000 FMFlg1=           0
         NFxFlg=           0 DoJE=T BraDBF=F KetDBF=T FulRan=T
         Omega=  0.000000  0.000000  1.000000  0.000000  0.000000 ICntrl=     500 IOpCl=  0
         NMat0=    1 NMatS0=    1 NMatT0=    0 NMatD0=    1 NMtDS0=    0 NMtDT0=    0
         I1Cent=           4 NGrid=           0.
 Petite list used in FoFCou.
 Requested convergence on RMS density matrix=1.00D-08 within 128 cycles.
 Requested convergence on MAX density matrix=1.00D-06.
 Requested convergence on             energy=1.00D-06.
 No special actions if energy rises.
 Keep R1 ints in memory in canonical form, NReq=3551234.
 Integral accuracy reduced to 1.0D-05 until final iterations.
 Initial convergence to 1.0D-05 achieved.  Increase integral accuracy.
 SCF Done:  E(RM062X) =  -226.596530276     A.U. after   22 cycles
             Convg  =    0.2927D-08             -V/T =  2.0082
 Calling FoFJK, ICntrl=      2127 FMM=F ISym2X=0 I1Cent= 0 IOpClX= 0 NMat=1 NMatS=1 NMatT=0.
 ***** Axes restored to original set *****
 -------------------------------------------------------------------
 Center     Atomic                   Forces (Hartrees/Bohr)
 Number     Number              X              Y              Z
 -------------------------------------------------------------------
      1        8           0.005871672    0.003819796   -0.000024233
      2        8          -0.008061640   -0.014977626   -0.002726977
      3        1           0.007100796    0.038702104    0.006092587
      4        8          -0.005870303   -0.025294640    0.001263672
      5        1           0.000959475   -0.002249633   -0.004605049
 -------------------------------------------------------------------
 Cartesian Forces:  Max     0.038702104 RMS     0.013252123

 GradGradGradGradGradGradGradGradGradGradGradGradGradGradGradGradGradGrad
 Berny optimization.
 Internal  Forces:  Max     0.028015194 RMS     0.010812802
 Search for a saddle point.
 Step number   7 out of a maximum of  100
 All quantities printed in internal units (Hartrees-Bohrs-Radians)
 Swaping is turned off.
 Update second derivatives using D2CorX and points    5    6    7
 The second derivative matrix:
                          R1        R2        R3        R4        A1
           R1           0.42734
           R2           0.00420   0.00042
           R3           0.05030   0.03518   0.32185
           R4           0.00001  -0.00042  -0.00704   0.57200
           A1           0.00531  -0.01680   0.00448   0.00037   0.05187
           A2          -0.01458  -0.00369  -0.00497  -0.00815   0.00022
           A3          -0.03953   0.00958   0.01929  -0.02171   0.00690
           A4          -0.00159  -0.00292  -0.00882   0.00053  -0.00355
           A5           0.00150   0.00093   0.00190   0.00077   0.00014
                          A2        A3        A4        A5
           A2          -0.11206
           A3           0.05163   0.05387
           A4           0.00970  -0.01372   0.02137
           A5          -0.00187   0.00025  -0.00037   0.00201
     Eigenvalues ---   -0.12843  -0.00917   0.00206   0.01985   0.05371
     Eigenvalues ---    0.06695   0.30932   0.45107   0.57332
 Eigenvectors required to have negative eigenvalues:
                          A2        A3        A4        R2        R3
   1                    0.95480  -0.28040  -0.08532   0.04289   0.01708
                          A5        A1        R1        R4
   1                    0.01340   0.01137   0.00285   0.00266
 RFO step:  Lambda0=3.511206932D-05 Lambda=-1.85537025D-02.
 Linear search not attempted -- option 19 set.
 Maximum step size (   0.300) exceeded in Quadratic search.
    -- Step size scaled by   0.294
 Iteration  1 RMS(Cart)=  0.08663970 RMS(Int)=  0.02995257
 Iteration  2 RMS(Cart)=  0.03191525 RMS(Int)=  0.00003732
 Iteration  3 RMS(Cart)=  0.00003773 RMS(Int)=  0.00000000
 Iteration  4 RMS(Cart)=  0.00000000 RMS(Int)=  0.00000000
 Variable       Old X    -DE/DX   Delta X   Delta X   Delta X     New X
                                 (Linear)    (Quad)   (Total)
    R1        2.26539  -0.00661   0.00000  -0.00067  -0.00067   2.26472
    R2        3.32938   0.01142   0.00000   0.28980   0.28980   3.61918
    R3        1.88527  -0.02802   0.00000  -0.05452  -0.05452   1.83074
    R4        1.80961   0.00278   0.00000   0.00122   0.00122   1.81083
    A1        2.20367  -0.00489   0.00000   0.04986   0.04986   2.25353
    A2        3.50762   0.00018   0.00000  -0.00287  -0.00287   3.50475
    A3        4.39750   0.00784   0.00000   0.00949   0.00949   4.40698
    A4        2.95010   0.00051   0.00000   0.01983   0.01983   2.96994
    A5        3.12853  -0.00013   0.00000  -0.00809  -0.00809   3.12044
         Item               Value     Threshold  Converged?
 Maximum Force            0.028015     0.000450     NO 
 RMS     Force            0.010813     0.000300     NO 
 Maximum Displacement     0.212059     0.001800     NO 
 RMS     Displacement     0.116289     0.001200     NO 
 Predicted change in Energy=-4.922079D-03
 GradGradGradGradGradGradGradGradGradGradGradGradGradGradGradGradGradGrad

                          Input orientation:                          
 ---------------------------------------------------------------------
 Center     Atomic      Atomic             Coordinates (Angstroms)
 Number     Number       Type             X           Y           Z
 ---------------------------------------------------------------------
      1          8           0       -0.382115   -0.413406   -0.003235
      2          8           0        0.705825    0.037949   -0.224409
      3          1           0        1.387382    1.787793    0.151713
      4          8           0        1.584522    2.699374    0.413831
      5          1           0        1.908266    3.197700   -0.337900
 ---------------------------------------------------------------------
                    Distance matrix (angstroms):
                    1          2          3          4          5
     1  O    0.000000
     2  O    1.198437   0.000000
     3  H    2.828498   1.915187   0.000000
     4  O    3.705536   2.874481   0.968788   0.000000
     5  H    4.289281   3.382716   1.580784   0.958248   0.000000
 Stoichiometry    H2O3
 Framework group  C1[X(H2O3)]
 Deg. of freedom     9
 Full point group                 C1      NOp   1
 Largest Abelian subgroup         C1      NOp   1
 Largest concise Abelian subgroup C1      NOp   1
                         Standard orientation:                         
 ---------------------------------------------------------------------
 Center     Atomic      Atomic             Coordinates (Angstroms)
 Number     Number       Type             X           Y           Z
 ---------------------------------------------------------------------
      1          8           0       -1.681406   -0.343819    0.041411
      2          8           0       -0.789749    0.452970   -0.038136
      3          1           0        1.101421    0.151611   -0.062641
      4          8           0        2.017928   -0.162188   -0.072338
      5          1           0        2.524387    0.272680    0.615142
 ---------------------------------------------------------------------
 Rotational constants (GHZ):     81.8107076      3.9412421      3.7877203
 Standard basis: 6-31+G(d,p) (6D, 7F)
 There are    67 symmetry adapted basis functions of A   symmetry.
 Integral buffers will be    262144 words long.
 Raffenetti 2 integral format.
 Two-electron integral symmetry is turned on.
    67 basis functions,   110 primitive gaussians,    67 cartesian basis functions
    13 alpha electrons       13 beta electrons
       nuclear repulsion energy        64.2493719506 Hartrees.
 NAtoms=    5 NActive=    5 NUniq=    5 SFac= 7.50D-01 NAtFMM=   80 NAOKFM=F Big=F
 One-electron integrals computed using PRISM.
 NBasis=    67 RedAO= T  NBF=    67
 NBsUse=    67 1.00D-06 NBFU=    67
 Initial guess read from the read-write file.
 B after Tr=     0.000000    0.000000    0.000000
         Rot=    1.000000    0.000000    0.000000    0.000000 Ang=   0.00 deg.
 Initial guess orbital symmetries:
       Occupied  (A) (A) (A) (A) (A) (A) (A) (A) (A) (A) (A) (A)
                 (A)
       Virtual   (A) (A) (A) (A) (A) (A) (A) (A) (A) (A) (A) (A)
                 (A) (A) (A) (A) (A) (A) (A) (A) (A) (A) (A) (A)
                 (A) (A) (A) (A) (A) (A) (A) (A) (A) (A) (A) (A)
                 (A) (A) (A) (A) (A) (A) (A) (A) (A) (A) (A) (A)
                 (A) (A) (A) (A) (A) (A)
 Harris functional with IExCor= 1009 diagonalized for initial guess.
 ExpMin= 8.45D-02 ExpMax= 5.48D+03 ExpMxC= 8.25D+02 IAcc=2 IRadAn=         0 AccDes= 0.00D+00
 HarFok:  IExCor= 1009 AccDes= 0.00D+00 IRadAn=         0 IDoV= 1
 ScaDFX=  1.000000  1.000000  1.000000  1.000000
 FoFCou: FMM=F IPFlag=           0 FMFlag=      100000 FMFlg1=           0
         NFxFlg=           0 DoJE=T BraDBF=F KetDBF=T FulRan=T
         Omega=  0.000000  0.000000  1.000000  0.000000  0.000000 ICntrl=     500 IOpCl=  0
         NMat0=    1 NMatS0=    1 NMatT0=    0 NMatD0=    1 NMtDS0=    0 NMtDT0=    0
         I1Cent=           4 NGrid=           0.
 Petite list used in FoFCou.
 Requested convergence on RMS density matrix=1.00D-08 within 128 cycles.
 Requested convergence on MAX density matrix=1.00D-06.
 Requested convergence on             energy=1.00D-06.
 No special actions if energy rises.
 Keep R1 ints in memory in canonical form, NReq=3551234.
 Integral accuracy reduced to 1.0D-05 until final iterations.
 Initial convergence to 1.0D-05 achieved.  Increase integral accuracy.
 SCF Done:  E(RM062X) =  -226.599812873     A.U. after   23 cycles
             Convg  =    0.2957D-08             -V/T =  2.0081
 Calling FoFJK, ICntrl=      2127 FMM=F ISym2X=0 I1Cent= 0 IOpClX= 0 NMat=1 NMatS=1 NMatT=0.
 ***** Axes restored to original set *****
 -------------------------------------------------------------------
 Center     Atomic                   Forces (Hartrees/Bohr)
 Number     Number              X              Y              Z
[...]
 Iteration 90 RMS(Cart)=  0.00011109 RMS(Int)=  1.00386253
 Iteration 91 RMS(Cart)=  0.00010956 RMS(Int)=  1.00386061
 Iteration 92 RMS(Cart)=  0.00010805 RMS(Int)=  1.00385872
 Iteration 93 RMS(Cart)=  0.00010657 RMS(Int)=  1.00385686
 Iteration 94 RMS(Cart)=  0.00010511 RMS(Int)=  1.00385503
 Iteration 95 RMS(Cart)=  0.00010368 RMS(Int)=  1.00385323
 Iteration 96 RMS(Cart)=  0.00010227 RMS(Int)=  1.00385146
 Iteration 97 RMS(Cart)=  0.00010088 RMS(Int)=  1.00384972
 Iteration 98 RMS(Cart)=  0.00009951 RMS(Int)=  1.00384801
 Iteration 99 RMS(Cart)=  0.00009817 RMS(Int)=  1.00384632
 Iteration100 RMS(Cart)=  0.00009685 RMS(Int)=  1.00384467
 New curvilinear step not converged.
 Iteration  1 RMS(Cart)=  0.03503506 RMS(Int)=  1.00713045
 Iteration  2 RMS(Cart)=  0.08105184 RMS(Int)=  1.00102435
 New curvilinear step failed, DQL= 3.10D+00 SP=-8.04D-02.
 Iteration  1 RMS(Cart)=  0.02793514 RMS(Int)=  0.04311688
 Iteration  2 RMS(Cart)=  0.01163919 RMS(Int)=  0.03782598
 Iteration  3 RMS(Cart)=  0.00822899 RMS(Int)=  0.03629268
 Iteration  4 RMS(Cart)=  0.01007468 RMS(Int)=  0.83827764
 Iteration  5 RMS(Cart)=  0.00055255 RMS(Int)=  0.66305206
 Iteration  6 RMS(Cart)=  0.00863594 RMS(Int)=  0.65753841
 Iteration  7 RMS(Cart)=  0.00165236 RMS(Int)=  0.59193752
 Iteration  8 RMS(Cart)=  0.00171239 RMS(Int)=  0.52527849
 Iteration  9 RMS(Cart)=  0.00173159 RMS(Int)=  0.46114859
 Iteration 10 RMS(Cart)=  0.00190011 RMS(Int)=  0.39946233
 Iteration 11 RMS(Cart)=  0.00223163 RMS(Int)=  0.34008414
 Iteration 12 RMS(Cart)=  0.00284725 RMS(Int)=  0.28336137
 Iteration 13 RMS(Cart)=  0.00396817 RMS(Int)=  0.22966001
 Iteration 14 RMS(Cart)=  0.00615794 RMS(Int)=  0.17965705
 Iteration 15 RMS(Cart)=  0.01100999 RMS(Int)=  0.13447186
 Iteration 16 RMS(Cart)=  0.02399804 RMS(Int)=  0.09580228
 Iteration 17 RMS(Cart)=  0.07120198 RMS(Int)=  0.06598500
 Iteration 18 RMS(Cart)=  0.02981971 RMS(Int)=  0.06125571
 Iteration 19 RMS(Cart)=  0.00945797 RMS(Int)=  0.06002207
 Iteration 20 RMS(Cart)=  0.00730722 RMS(Int)=  0.05913037
 Iteration 21 RMS(Cart)=  0.00620425 RMS(Int)=  0.05840876
 Iteration 22 RMS(Cart)=  0.00553813 RMS(Int)=  0.05778851
 Iteration 23 RMS(Cart)=  0.00510416 RMS(Int)=  0.05723443
 Iteration 24 RMS(Cart)=  0.00481132 RMS(Int)=  0.05672584
 Iteration 25 RMS(Cart)=  0.00461315 RMS(Int)=  0.05624931
 Iteration 26 RMS(Cart)=  0.00448310 RMS(Int)=  0.05579553
 Iteration 27 RMS(Cart)=  0.00440490 RMS(Int)=  0.05535763
 Iteration 28 RMS(Cart)=  0.00436833 RMS(Int)=  0.05493029
 Iteration 29 RMS(Cart)=  0.00436675 RMS(Int)=  0.05450922
 Iteration 30 RMS(Cart)=  0.00439593 RMS(Int)=  0.05409075
 Iteration 31 RMS(Cart)=  0.00445323 RMS(Int)=  0.05367163
 Iteration 32 RMS(Cart)=  0.00453724 RMS(Int)=  0.05324887
 Iteration 33 RMS(Cart)=  0.00464749 RMS(Int)=  0.05281959
 Iteration 34 RMS(Cart)=  0.00478437 RMS(Int)=  0.05238090
 Iteration 35 RMS(Cart)=  0.00494904 RMS(Int)=  0.05192981
 Iteration 36 RMS(Cart)=  0.00514351 RMS(Int)=  0.05146311
 Iteration 37 RMS(Cart)=  0.00537068 RMS(Int)=  0.05097725
 Iteration 38 RMS(Cart)=  0.00563458 RMS(Int)=  0.05046820
 Iteration 39 RMS(Cart)=  0.00594058 RMS(Int)=  0.04993128
 Iteration 40 RMS(Cart)=  0.00629591 RMS(Int)=  0.04936087
 Iteration 41 RMS(Cart)=  0.00671020 RMS(Int)=  0.04875011
 Iteration 42 RMS(Cart)=  0.00719656 RMS(Int)=  0.04809044
 Iteration 43 RMS(Cart)=  0.00777302 RMS(Int)=  0.04737083
 Iteration 44 RMS(Cart)=  0.00846498 RMS(Int)=  0.04657681
 Iteration 45 RMS(Cart)=  0.00930917 RMS(Int)=  0.04568870
 Iteration 46 RMS(Cart)=  0.01036143 RMS(Int)=  0.04467879
 Iteration 47 RMS(Cart)=  0.01170661 RMS(Int)=  0.04350672
 Iteration 48 RMS(Cart)=  0.01348579 RMS(Int)=  0.04211049
 Iteration 49 RMS(Cart)=  0.01594448 RMS(Int)=  0.04038890
 Iteration 50 RMS(Cart)=  0.01954767 RMS(Int)=  0.03816320
 Iteration 51 RMS(Cart)=  0.02527331 RMS(Int)=  0.03508330
 Iteration 52 RMS(Cart)=  0.03546583 RMS(Int)=  0.03036737
 Iteration 53 RMS(Cart)=  0.05624907 RMS(Int)=  0.02213173
 Iteration 54 RMS(Cart)=  0.08390362 RMS(Int)=  0.01032689
 Iteration 55 RMS(Cart)=  0.00885690 RMS(Int)=  0.00003646
 Iteration 56 RMS(Cart)=  0.00002692 RMS(Int)=  0.00000000
 Iteration 57 RMS(Cart)=  0.00000000 RMS(Int)=  0.00000000
 Variable       Old X    -DE/DX   Delta X   Delta X   Delta X     New X
                                 (Linear)    (Quad)   (Total)
    R1        2.26101  -0.00252   0.00000  -0.00065  -0.00039   2.26062
    R2        4.75744   0.00321   0.00000   0.11768   0.07061   4.82805
    R3        1.81410   0.00303   0.00000  -0.00248  -0.00149   1.81261
    R4        1.81080   0.00412   0.00000   0.00098   0.00059   1.81140
    A1        1.77642   0.00373   0.00000   0.03587   0.02152   1.79794
    A2        3.24346  -0.00074   0.00000  -0.16164  -0.09699   3.14648
    A3        3.08436   0.00000   0.00000   0.21013   0.12608   3.21044
    A4        1.66500   0.00763   0.00000  -0.05516  -0.03310   1.63191
    A5        3.46985  -0.00119   0.00000  -0.03912  -0.02347   3.44637
         Item               Value     Threshold  Converged?
 Maximum Force            0.007627     0.000450     NO 
 RMS     Force            0.003605     0.000300     NO 
 Maximum Displacement     0.827449     0.001800     NO 
 RMS     Displacement     0.540670     0.001200     NO 
 Predicted change in Energy=-1.678572D-04
 GradGradGradGradGradGradGradGradGradGradGradGradGradGradGradGradGradGrad

                          Input orientation:                          
 ---------------------------------------------------------------------
 Center     Atomic      Atomic             Coordinates (Angstroms)
 Number     Number       Type             X           Y           Z
 ---------------------------------------------------------------------
      1          8           0        0.832046   -0.308758    0.335174
      2          8           0       -0.065127    0.220413   -0.253141
      3          1           0        0.862488    2.550214   -0.742046
      4          8           0        1.560597    2.455611   -0.091093
      5          1           0        2.013876    2.391930    0.751106
 ---------------------------------------------------------------------
                    Distance matrix (angstroms):
                    1          2          3          4          5
     1  O    0.000000
     2  O    1.196268   0.000000
     3  H    3.055332   2.554892   0.000000
     4  O    2.890368   2.768637   0.959190   0.000000
     5  H    2.977152   3.169582   1.892155   0.958549   0.000000
 Stoichiometry    H2O3
 Framework group  C1[X(H2O3)]
 Deg. of freedom     9
 Full point group                 C1      NOp   1
 Largest Abelian subgroup         C1      NOp   1
 Largest concise Abelian subgroup C1      NOp   1
                         Standard orientation:                         
 ---------------------------------------------------------------------
 Center     Atomic      Atomic             Coordinates (Angstroms)
 Number     Number       Type             X           Y           Z
 ---------------------------------------------------------------------
      1          8           0       -1.130943   -0.581664   -0.052344
      2          8           0       -0.990387    0.601152    0.058320
      3          1           0        1.533960    0.906360   -0.190672
      4          8           0        1.705112   -0.024286   -0.033665
      5          1           0        1.795774   -0.867975    0.412189
 ---------------------------------------------------------------------
 Rotational constants (GHZ):     38.5519797      5.7198381      5.0103397
 Standard basis: 6-31+G(d,p) (6D, 7F)
 There are    67 symmetry adapted basis functions of A   symmetry.
 Integral buffers will be    262144 words long.
 Raffenetti 2 integral format.
 Two-electron integral symmetry is turned on.
    67 basis functions,   110 primitive gaussians,    67 cartesian basis functions
    13 alpha electrons       13 beta electrons
       nuclear repulsion energy        67.1705042890 Hartrees.
 NAtoms=    5 NActive=    5 NUniq=    5 SFac= 7.50D-01 NAtFMM=   80 NAOKFM=F Big=F
 One-electron integrals computed using PRISM.
 NBasis=    67 RedAO= T  NBF=    67
 NBsUse=    67 1.00D-06 NBFU=    67
 Initial guess read from the read-write file.
 B after Tr=     0.000000    0.000000    0.000000
         Rot=    1.000000    0.000000    0.000000    0.000000 Ang=   0.00 deg.
 Initial guess orbital symmetries:
       Occupied  (A) (A) (A) (A) (A) (A) (A) (A) (A) (A) (A) (A)
                 (A)
       Virtual   (A) (A) (A) (A) (A) (A) (A) (A) (A) (A) (A) (A)
                 (A) (A) (A) (A) (A) (A) (A) (A) (A) (A) (A) (A)
                 (A) (A) (A) (A) (A) (A) (A) (A) (A) (A) (A) (A)
                 (A) (A) (A) (A) (A) (A) (A) (A) (A) (A) (A) (A)
                 (A) (A) (A) (A) (A) (A)
 Harris functional with IExCor= 1009 diagonalized for initial guess.
 ExpMin= 8.45D-02 ExpMax= 5.48D+03 ExpMxC= 8.25D+02 IAcc=2 IRadAn=         0 AccDes= 0.00D+00
 HarFok:  IExCor= 1009 AccDes= 0.00D+00 IRadAn=         0 IDoV= 1
 ScaDFX=  1.000000  1.000000  1.000000  1.000000
 FoFCou: FMM=F IPFlag=           0 FMFlag=      100000 FMFlg1=           0
         NFxFlg=           0 DoJE=T BraDBF=F KetDBF=T FulRan=T
         Omega=  0.000000  0.000000  1.000000  0.000000  0.000000 ICntrl=     500 IOpCl=  0
         NMat0=    1 NMatS0=    1 NMatT0=    0 NMatD0=    1 NMtDS0=    0 NMtDT0=    0
         I1Cent=           4 NGrid=           0.
 Petite list used in FoFCou.
 Requested convergence on RMS density matrix=1.00D-08 within 128 cycles.
 Requested convergence on MAX density matrix=1.00D-06.
 Requested convergence on             energy=1.00D-06.
 No special actions if energy rises.
 Keep R1 ints in memory in canonical form, NReq=3550937.
 Integral accuracy reduced to 1.0D-05 until final iterations.
 Initial convergence to 1.0D-05 achieved.  Increase integral accuracy.
 SCF Done:  E(RM062X) =  -226.560503823     A.U. after   46 cycles
             Convg  =    0.1928D-08             -V/T =  2.0084
 Calling FoFJK, ICntrl=      2127 FMM=F ISym2X=0 I1Cent= 0 IOpClX= 0 NMat=1 NMatS=1 NMatT=0.
 ***** Axes restored to original set *****
 -------------------------------------------------------------------
 Center     Atomic                   Forces (Hartrees/Bohr)
 Number     Number              X              Y              Z
 -------------------------------------------------------------------
      1        8          -0.001963481    0.000842232   -0.000490966
      2        8          -0.000740451   -0.004175998   -0.000159593
      3        1          -0.001205950   -0.000638195    0.030322821
      4        8           0.032090256   -0.000174826   -0.023128403
      5        1          -0.028180375    0.004146787   -0.006543859
 -------------------------------------------------------------------
 Cartesian Forces:  Max     0.032090256 RMS     0.014973405

 GradGradGradGradGradGradGradGradGradGradGradGradGradGradGradGradGradGrad
 Berny optimization.
 Internal  Forces:  Max     0.113370426 RMS     0.051400769
 Search for a saddle point.
 Step number  75 out of a maximum of  100
 All quantities printed in internal units (Hartrees-Bohrs-Radians)
 Swaping is turned off.
 Update second derivatives using D2CorX and points   71   72   73   74   75
 The second derivative matrix:
                          R1        R2        R3        R4        A1
           R1           0.78621
           R2           0.00135  -0.00061
           R3          -0.00818   0.03491   0.47399
           R4          -0.00191   0.07569   0.00919   0.58576
           A1           0.00502   0.04859   0.01564   0.02051   0.06631
           A2          -0.02692  -0.28851  -0.03916  -0.05863  -0.01864
           A3           0.01683  -0.25332   0.03075   0.05108  -0.07344
           A4          -0.04072   0.01558   0.00381  -0.02143   0.06548
           A5          -0.00688  -0.10423  -0.03506  -0.01578   0.00439
                          A2        A3        A4        A5
           A2           0.53843
           A3           0.18297  -0.60980
           A4           0.47363  -0.05340   0.58761
           A5          -0.08055   0.04341   0.14380  -0.05039
     Eigenvalues ---   -0.72262  -0.31297   0.02794   0.07259   0.35485
     Eigenvalues ---    0.48010   0.59151   0.78190   1.10421
 Eigenvectors required to have negative eigenvalues:
                          A3        R2        A2        A4        A1
   1                    0.94400   0.28351  -0.10649   0.07463   0.06432
                          R4        A5        R3        R1
   1                   -0.05816  -0.04962  -0.03818  -0.01139
 RFO step:  Lambda0=1.624046068D-02 Lambda=-3.13093680D-01.
 Linear search not attempted -- option 19 set.
 Maximum step size (   0.300) exceeded in Quadratic search.
    -- Step size scaled by   0.390
 Iteration  1 RMS(Cart)=  0.14871363 RMS(Int)=  0.02160981
 New curvilinear step failed, DQL= 1.51D+01 SP=-7.28D-01.
 Iteration  1 RMS(Cart)=  0.13384227 RMS(Int)=  0.01773672
 New curvilinear step failed, DQL= 1.05D+00 SP=-6.55D-01.
 Iteration  1 RMS(Cart)=  0.11897091 RMS(Int)=  0.01420390
 New curvilinear step failed, DQL= 1.18D-01 SP=-5.79D-01.
 Iteration  1 RMS(Cart)=  0.10409954 RMS(Int)=  0.01102460
 Iteration  2 RMS(Cart)=  0.02177259 RMS(Int)=  0.00909346
 New curvilinear step failed, DQL= 5.19D-02 SP=-5.27D-01.
 Iteration  1 RMS(Cart)=  0.08922818 RMS(Int)=  0.00821306
 Iteration  2 RMS(Cart)=  0.05298400 RMS(Int)=  0.00374543
 New curvilinear step failed, DQL= 7.54D-03 SP=-9.04D-01.
 Iteration  1 RMS(Cart)=  0.07435682 RMS(Int)=  0.00578455
 Iteration  2 RMS(Cart)=  0.02900246 RMS(Int)=  0.00116294
 Iteration  3 RMS(Cart)=  0.00789615 RMS(Int)=  0.00008145
 Iteration  4 RMS(Cart)=  0.00051790 RMS(Int)=  0.00000035
 Iteration  5 RMS(Cart)=  0.00000207 RMS(Int)=  0.00000000
 Iteration  6 RMS(Cart)=  0.00000000 RMS(Int)=  0.00000000
 Variable       Old X    -DE/DX   Delta X   Delta X   Delta X     New X
                                 (Linear)    (Quad)   (Total)
    R1        2.26062  -0.00867   0.00000  -0.00150  -0.00075   2.25987
    R2        4.82805   0.00424   0.00000  -0.19323  -0.09661   4.73143
    R3        1.81261  -0.00744   0.00000  -0.00605  -0.00303   1.80958
    R4        1.81140  -0.01520   0.00000   0.00576   0.00288   1.81428
    A1        1.79794   0.00861   0.00000   0.00063   0.00032   1.79825
    A2        3.14648   0.06293   0.00000  -0.10568  -0.05284   3.09364
    A3        3.21044   0.11337   0.00000  -0.03293  -0.01647   3.19398
    A4        1.63191   0.08061   0.00000   0.11568   0.05784   1.68975
    A5        3.44637  -0.00368   0.00000  -0.16418  -0.08209   3.36428
         Item               Value     Threshold  Converged?
 Maximum Force            0.113370     0.000450     NO 
 RMS     Force            0.051401     0.000300     NO 
 Maximum Displacement     0.168165     0.001800     NO 
 RMS     Displacement     0.106511     0.001200     NO 
 Predicted change in Energy=-2.884941D-03
 GradGradGradGradGradGradGradGradGradGradGradGradGradGradGradGradGradGrad

                          Input orientation:                          
 ---------------------------------------------------------------------
 Center     Atomic      Atomic             Coordinates (Angstroms)
 Number     Number       Type             X           Y           Z
 ---------------------------------------------------------------------
      1          8           0        0.784075   -0.306019    0.363513
      2          8           0       -0.053446    0.196404   -0.326585
      3          1           0        0.842393    2.502186   -0.713477
      4          8           0        1.527992    2.461622   -0.046180
      5          1           0        2.102865    2.455217    0.722729
 ---------------------------------------------------------------------
                    Distance matrix (angstroms):
                    1          2          3          4          5
     1  O    0.000000
     2  O    1.195870   0.000000
     3  H    3.008209   2.503766   0.000000
     4  O    2.895012   2.776830   0.957588   0.000000
     5  H    3.081016   3.294384   1.911461   0.960074   0.000000
 Stoichiometry    H2O3
 Framework group  C1[X(H2O3)]
 Deg. of freedom     9
 Full point group                 C1      NOp   1
 Largest Abelian subgroup         C1      NOp   1
 Largest concise Abelian subgroup C1      NOp   1
                         Standard orientation:                         
 ---------------------------------------------------------------------
 Center     Atomic      Atomic             Coordinates (Angstroms)
 Number     Number       Type             X           Y           Z
 ---------------------------------------------------------------------
      1          8           0       -1.129583   -0.588843   -0.034377
      2          8           0       -1.001976    0.597872    0.039977
      3          1           0        1.475561    0.911658   -0.139445
      4          8           0        1.706892   -0.009805   -0.019585
      5          1           0        1.921777   -0.905448    0.251322
 ---------------------------------------------------------------------
 Rotational constants (GHZ):     38.6980933      5.6858728      4.9694657
 Standard basis: 6-31+G(d,p) (6D, 7F)
 There are    67 symmetry adapted basis functions of A   symmetry.
 Integral buffers will be    262144 words long.
 Raffenetti 2 integral format.
 Two-electron integral symmetry is turned on.
    67 basis functions,   110 primitive gaussians,    67 cartesian basis functions
    13 alpha electrons       13 beta electrons
       nuclear repulsion energy        67.0795817084 Hartrees.
 NAtoms=    5 NActive=    5 NUniq=    5 SFac= 7.50D-01 NAtFMM=   80 NAOKFM=F Big=F
 One-electron integrals computed using PRISM.
 NBasis=    67 RedAO= T  NBF=    67
 NBsUse=    67 1.00D-06 NBFU=    67
 Initial guess read from the read-write file.
 B after Tr=     0.000000    0.000000    0.000000
         Rot=    1.000000    0.000000    0.000000    0.000000 Ang=   0.00 deg.
 Initial guess orbital symmetries:
       Occupied  (A) (A) (A) (A) (A) (A) (A) (A) (A) (A) (A) (A)
                 (A)
       Virtual   (A) (A) (A) (A) (A) (A) (A) (A) (A) (A) (A) (A)
                 (A) (A) (A) (A) (A) (A) (A) (A) (A) (A) (A) (A)
                 (A) (A) (A) (A) (A) (A) (A) (A) (A) (A) (A) (A)
                 (A) (A) (A) (A) (A) (A) (A) (A) (A) (A) (A) (A)
                 (A) (A) (A) (A) (A) (A)
 Harris functional with IExCor= 1009 diagonalized for initial guess.
 ExpMin= 8.45D-02 ExpMax= 5.48D+03 ExpMxC= 8.25D+02 IAcc=2 IRadAn=         0 AccDes= 0.00D+00
 HarFok:  IExCor= 1009 AccDes= 0.00D+00 IRadAn=         0 IDoV= 1
 ScaDFX=  1.000000  1.000000  1.000000  1.000000
 FoFCou: FMM=F IPFlag=           0 FMFlag=      100000 FMFlg1=           0
         NFxFlg=           0 DoJE=T BraDBF=F KetDBF=T FulRan=T
         Omega=  0.000000  0.000000  1.000000  0.000000  0.000000 ICntrl=     500 IOpCl=  0
         NMat0=    1 NMatS0=    1 NMatT0=    0 NMatD0=    1 NMtDS0=    0 NMtDT0=    0
         I1Cent=           4 NGrid=           0.
 Petite list used in FoFCou.
 Requested convergence on RMS density matrix=1.00D-08 within 128 cycles.
 Requested convergence on MAX density matrix=1.00D-06.
 Requested convergence on             energy=1.00D-06.
 No special actions if energy rises.
 Keep R1 ints in memory in canonical form, NReq=3550937.
 Integral accuracy reduced to 1.0D-05 until final iterations.
 Initial convergence to 1.0D-05 achieved.  Increase integral accuracy.
 >>>>>>>>>> Convergence criterion not met.
 SCF Done:  E(RM062X) =  -226.555908735     A.U. after  129 cycles
             Convg  =    0.1608D-02             -V/T =  2.0084
 Convergence failure -- run terminated.
 Error termination via Lnk1e in C:\G09W\l502.exe at Mon Feb 08 19:54:30 2021.
 Job cpu time:  0 days  0 hours  8 minutes 59.0 seconds.
 File lengths (MBytes):  RWF=      6 Int=      0 D2E=      0 Chk=      1 Scr=      1
