 Entering Link 1 = C:\G09W\l1.exe PID=     10960.
  
 Copyright (c) 1988,1990,1992,1993,1995,1998,2003,2009, Gaussian, Inc.
                  All Rights Reserved.
  
 This is part of the Gaussian(R) 09 program.  It is based on
 the Gaussian(R) 03 system (copyright 2003, Gaussian, Inc.),
 the Gaussian(R) 98 system (copyright 1998, Gaussian, Inc.),
 the Gaussian(R) 94 system (copyright 1995, Gaussian, Inc.),
 the Gaussian 92(TM) system (copyright 1992, Gaussian, Inc.),
 the Gaussian 90(TM) system (copyright 1990, Gaussian, Inc.),
 the Gaussian 88(TM) system (copyright 1988, Gaussian, Inc.),
 the Gaussian 86(TM) system (copyright 1986, Carnegie Mellon
 University), and the Gaussian 82(TM) system (copyright 1983,
 Carnegie Mellon University). Gaussian is a federally registered
 trademark of Gaussian, Inc.
  
 This software contains proprietary and confidential information,
 including trade secrets, belonging to Gaussian, Inc.
  
 This software is provided under written license and may be
 used, copied, transmitted, or stored only in accord with that
 written license.
  
 The following legend is applicable only to US Government
 contracts under FAR:
  
                    RESTRICTED RIGHTS LEGEND
  
 Use, reproduction and disclosure by the US Government is
 subject to restrictions as set forth in subparagraphs (a)
 and (c) of the Commercial Computer Software - Restricted
 Rights clause in FAR 52.227-19.
  
 Gaussian, Inc.
 340 Quinnipiac St., Bldg. 40, Wallingford CT 06492
  
  
 ---------------------------------------------------------------
 Warning -- This program may not be used in any manner that
 competes with the business of Gaussian, Inc. or will provide
 assistance to any competitor of Gaussian, Inc.  The licensee
 of this program is prohibited from giving any competitor of
 Gaussian, Inc. access to this program.  By using this program,
 the user acknowledges that Gaussian, Inc. is engaged in the
 business of creating and licensing software in the field of
 computational chemistry and represents and warrants to the
 licensee that it is not a competitor of Gaussian, Inc. and that
 it will not use this program in any manner prohibited above.
 ---------------------------------------------------------------
  

 Cite this work as:
 Gaussian 09, Revision A.02,
 M. J. Frisch, G. W. Trucks, H. B. Schlegel, G. E. Scuseria, 
 M. A. Robb, J. R. Cheeseman, G. Scalmani, V. Barone, B. Mennucci, 
 G. A. Petersson, H. Nakatsuji, M. Caricato, X. Li, H. P. Hratchian, 
 A. F. Izmaylov, J. Bloino, G. Zheng, J. L. Sonnenberg, M. Hada, 
 M. Ehara, K. Toyota, R. Fukuda, J. Hasegawa, M. Ishida, T. Nakajima, 
 Y. Honda, O. Kitao, H. Nakai, T. Vreven, J. A. Montgomery, Jr., 
 J. E. Peralta, F. Ogliaro, M. Bearpark, J. J. Heyd, E. Brothers, 
 K. N. Kudin, V. N. Staroverov, R. Kobayashi, J. Normand, 
 K. Raghavachari, A. Rendell, J. C. Burant, S. S. Iyengar, J. Tomasi, 
 M. Cossi, N. Rega, J. M. Millam, M. Klene, J. E. Knox, J. B. Cross, 
 V. Bakken, C. Adamo, J. Jaramillo, R. Gomperts, R. E. Stratmann, 
 O. Yazyev, A. J. Austin, R. Cammi, C. Pomelli, J. W. Ochterski, 
 R. L. Martin, K. Morokuma, V. G. Zakrzewski, G. A. Voth, 
 P. Salvador, J. J. Dannenberg, S. Dapprich, A. D. Daniels, 
 O. Farkas, J. B. Foresman, J. V. Ortiz, J. Cioslowski, 
 and D. J. Fox, Gaussian, Inc., Wallingford CT, 2009.
 
 ******************************************
 Gaussian 09:  IA32W-G09RevA.02 11-Jun-2009
                08-Feb-2021 
 ******************************************
 %chk=D:\Documents\rayGit\FQ\quimicaComputacional\proyecto\decompositionHydrogenP
 eroxide\descompositionByRadicals\gasPhase\step4\ts\tsM062X.chk
 %mem=1500MB
 %nprocshared=4
 Will use up to    4 processors via shared memory.
 ----------------------------------------------------------------------
 # opt=(readfc,ts,noeigen,maxcycles=100) geom=check guess=check freq=no
 raman 6-31+g(d,p) m062x
 ----------------------------------------------------------------------
 1/5=1,6=100,10=3,11=1,14=-1,18=20,26=3,29=2,38=1/1,3;
 2/9=110,12=2,40=1/2;
 3/5=1,6=6,7=111,11=2,14=-4,16=1,25=1,30=1,71=1,74=-55,116=-2/1,2,3;
 4/5=1/1;
 5/5=2,38=6/2;
 6/7=2,8=2,9=2,10=2,28=1/1;
 7//1,2,3,16;
 1/5=1,6=100,11=1,14=-1,18=20/3(2);
 2/9=110/2;
 99//99;
 2/9=110/2;
 3/5=1,6=6,7=111,11=2,14=-2,16=1,25=1,30=1,71=1,74=-55/1,2,3;
 4/5=5,16=3/1;
 5/5=2,38=5/2;
 7//1,2,3,16;
 1/5=1,6=100,11=1,14=-1,18=20/3(-5);
 2/9=110/2;
 6/7=2,8=2,9=2,10=2,19=2,28=1/1;
 99/9=1/99;
 ---
 ts2
 ---
 Redundant internal coordinates taken from checkpoint file:
 D:\Documents\rayGit\FQ\quimicaComputacional\proyecto\decompositionHydrogenPeroxide\descompositionByRadicals\gasPhase\step4\ts\tsM062X.chk
 Charge =  0 Multiplicity = 1
 O,0,-1.13094252,-0.5816643281,-0.0523440775
 O,0,-0.9903866841,0.6011520019,0.058319876
 H,0,1.5339595223,0.9063598628,-0.1906722562
 O,0,1.7051124598,-0.0242858027,-0.0336653491
 H,0,1.7957744322,-0.8679748315,0.4121886607
 Recover connectivity data from disk.

 GradGradGradGradGradGradGradGradGradGradGradGradGradGradGradGradGradGrad
 Berny optimization.
 Initialization pass.
 Force constant matrix read from checkpoint file:
 D:\Documents\rayGit\FQ\quimicaComputacional\proyecto\decompositionHydrogenPeroxi
 de\descompositionByRadicals\gasPhase\step4\ts\tsM062X.chk
                           ----------------------------
                           !    Initial Parameters    !
                           ! (Angstroms and Degrees)  !
 --------------------------                            --------------------------
 ! Name  Definition              Value          Derivative Info.                !
 --------------------------------------------------------------------------------
 ! R1    R(1,2)                  1.1963         D2E/DX2 =    0.786              !
 ! R2    R(2,3)                  2.5549         D2E/DX2 =   -0.0267             !
 ! R3    R(3,4)                  0.9592         D2E/DX2 =    0.4744             !
 ! R4    R(4,5)                  0.9585         D2E/DX2 =    0.5847             !
 ! A1    A(1,2,3)              103.0142         D2E/DX2 =    0.0713             !
 ! A2    L(3,4,5,-3,-1)        184.2873         D2E/DX2 =   -0.0696             !
 ! A3    L(3,4,5,-1,-2)        198.2785         D2E/DX2 =   -0.0033             !
 ! A4    L(2,3,4,1,-1)          93.5015         D2E/DX2 =    0.3463             !
 ! A5    L(2,3,4,1,-2)         197.4625         D2E/DX2 =   -0.0481             !
 --------------------------------------------------------------------------------
 Trust Radius=3.00D-01 FncErr=1.00D-07 GrdErr=1.00D-06
 Number of steps in this run= 100 maximum allowed number of steps= 100.
 Search for a saddle point of order  1.
 GradGradGradGradGradGradGradGradGradGradGradGradGradGradGradGradGradGrad

                          Input orientation:                          
 ---------------------------------------------------------------------
 Center     Atomic      Atomic             Coordinates (Angstroms)
 Number     Number       Type             X           Y           Z
 ---------------------------------------------------------------------
      1          8           0       -1.130943   -0.581664   -0.052344
      2          8           0       -0.990387    0.601152    0.058320
      3          1           0        1.533960    0.906360   -0.190672
      4          8           0        1.705112   -0.024286   -0.033665
      5          1           0        1.795774   -0.867975    0.412189
 ---------------------------------------------------------------------
                    Distance matrix (angstroms):
                    1          2          3          4          5
     1  O    0.000000
     2  O    1.196268   0.000000
     3  H    3.055332   2.554892   0.000000
     4  O    2.890368   2.768637   0.959190   0.000000
     5  H    2.977152   3.169582   1.892155   0.958549   0.000000
 Stoichiometry    H2O3
 Framework group  C1[X(H2O3)]
 Deg. of freedom     9
 Full point group                 C1      NOp   1
 Largest Abelian subgroup         C1      NOp   1
 Largest concise Abelian subgroup C1      NOp   1
                         Standard orientation:                         
 ---------------------------------------------------------------------
 Center     Atomic      Atomic             Coordinates (Angstroms)
 Number     Number       Type             X           Y           Z
 ---------------------------------------------------------------------
      1          8           0       -1.130943   -0.581664   -0.052344
      2          8           0       -0.990387    0.601152    0.058320
      3          1           0        1.533960    0.906360   -0.190672
      4          8           0        1.705112   -0.024286   -0.033665
      5          1           0        1.795774   -0.867975    0.412189
 ---------------------------------------------------------------------
 Rotational constants (GHZ):     38.5519797      5.7198381      5.0103397
 Standard basis: 6-31+G(d,p) (6D, 7F)
 There are    67 symmetry adapted basis functions of A   symmetry.
 Integral buffers will be    262144 words long.
 Raffenetti 2 integral format.
 Two-electron integral symmetry is turned on.
    67 basis functions,   110 primitive gaussians,    67 cartesian basis functions
    13 alpha electrons       13 beta electrons
       nuclear repulsion energy        67.1705042890 Hartrees.
 NAtoms=    5 NActive=    5 NUniq=    5 SFac= 7.50D-01 NAtFMM=   80 NAOKFM=F Big=F
 One-electron integrals computed using PRISM.
 NBasis=    67 RedAO= T  NBF=    67
 NBsUse=    67 1.00D-06 NBFU=    67
 Initial guess read from the checkpoint file:  D:\Documents\rayGit\FQ\quimicaComp
 utacional\proyecto\decompositionHydrogenPeroxide\descompositionByRadicals\gasPha
 se\step4\ts\tsM062X.chk
 B after Tr=     0.000000    0.000000    0.000000
         Rot=    1.000000    0.000000    0.000000    0.000000 Ang=   0.00 deg.
 Initial guess orbital symmetries:
       Occupied  (A) (A) (A) (A) (A) (A) (A) (A) (A) (A) (A) (A)
                 (A)
       Virtual   (A) (A) (A) (A) (A) (A) (A) (A) (A) (A) (A) (A)
                 (A) (A) (A) (A) (A) (A) (A) (A) (A) (A) (A) (A)
                 (A) (A) (A) (A) (A) (A) (A) (A) (A) (A) (A) (A)
                 (A) (A) (A) (A) (A) (A) (A) (A) (A) (A) (A) (A)
                 (A) (A) (A) (A) (A) (A)
 Requested convergence on RMS density matrix=1.00D-08 within 128 cycles.
 Requested convergence on MAX density matrix=1.00D-06.
 Requested convergence on             energy=1.00D-06.
 No special actions if energy rises.
 Keep R1 ints in memory in canonical form, NReq=3550937.
 SCF Done:  E(RM062X) =  -226.560503823     A.U. after    1 cycles
             Convg  =    0.1830D-09             -V/T =  2.0084

 **********************************************************************

            Population analysis using the SCF density.

 **********************************************************************

 Orbital symmetries:
       Occupied  (A) (A) (A) (A) (A) (A) (A) (A) (A) (A) (A) (A)
                 (A)
       Virtual   (A) (A) (A) (A) (A) (A) (A) (A) (A) (A) (A) (A)
                 (A) (A) (A) (A) (A) (A) (A) (A) (A) (A) (A) (A)
                 (A) (A) (A) (A) (A) (A) (A) (A) (A) (A) (A) (A)
                 (A) (A) (A) (A) (A) (A) (A) (A) (A) (A) (A) (A)
                 (A) (A) (A) (A) (A) (A)
 The electronic state is 1-A.
 Alpha  occ. eigenvalues --  -19.80985 -19.80924 -19.61968  -1.43127  -1.09971
 Alpha  occ. eigenvalues --   -0.91306  -0.66917  -0.62319  -0.62064  -0.59940
 Alpha  occ. eigenvalues --   -0.38610  -0.37865  -0.33680
 Alpha virt. eigenvalues --   -0.11566   0.06905   0.09060   0.12017   0.13585
 Alpha virt. eigenvalues --    0.15773   0.18723   0.20325   0.21100   0.22808
 Alpha virt. eigenvalues --    0.23486   0.25678   0.31955   0.34429   0.35894
 Alpha virt. eigenvalues --    0.38953   0.92157   1.05612   1.07968   1.12478
 Alpha virt. eigenvalues --    1.12918   1.13860   1.19086   1.19665   1.21244
 Alpha virt. eigenvalues --    1.22685   1.25105   1.36495   1.41087   1.52850
 Alpha virt. eigenvalues --    1.55810   1.58313   1.59152   1.62713   1.66788
 Alpha virt. eigenvalues --    1.77032   1.85890   1.88692   1.99168   1.99620
 Alpha virt. eigenvalues --    2.29065   2.33716   2.57964   2.62906   2.65392
 Alpha virt. eigenvalues --    2.66748   2.95962   2.97705   3.00594   3.36739
 Alpha virt. eigenvalues --    3.56642   3.80542   4.10699   5.05493
          Condensed to atoms (all electrons):
              1          2          3          4          5
     1  O    7.677423   0.319973  -0.001742  -0.012373   0.000535
     2  O    0.319973   7.692854   0.002999  -0.003685  -0.000622
     3  H   -0.001742   0.002999   0.271747   0.319252  -0.017898
     4  O   -0.012373  -0.003685   0.319252   8.231665   0.320640
     5  H    0.000535  -0.000622  -0.017898   0.320640   0.272153
 Mulliken atomic charges:
              1
     1  O    0.016184
     2  O   -0.011519
     3  H    0.425642
     4  O   -0.855499
     5  H    0.425192
 Sum of Mulliken atomic charges =   0.00000
 Mulliken charges with hydrogens summed into heavy atoms:
              1
     1  O    0.016184
     2  O   -0.011519
     4  O   -0.004665
 Sum of Mulliken charges with hydrogens summed into heavy atoms =   0.00000
 Electronic spatial extent (au):  <R**2>=            231.3771
 Charge=              0.0000 electrons
 Dipole moment (field-independent basis, Debye):
    X=             -0.2386    Y=              0.1453    Z=              0.6501  Tot=              0.7076
 Quadrupole moment (field-independent basis, Debye-Ang):
   XX=            -19.8670   YY=            -13.6858   ZZ=            -16.5644
   XY=             -0.3162   XZ=              1.6092   YZ=             -1.8144
 Traceless Quadrupole moment (field-independent basis, Debye-Ang):
   XX=             -3.1612   YY=              3.0199   ZZ=              0.1413
   XY=             -0.3162   XZ=              1.6092   YZ=             -1.8144
 Octapole moment (field-independent basis, Debye-Ang**2):
  XXX=             -6.7349  YYY=              0.1755  ZZZ=              0.4861  XYY=              6.2094
  XXY=             -1.9460  XXZ=              2.3257  XZZ=             -2.5381  YZZ=             -0.2099
  YYZ=              0.4438  XYZ=             -2.6793
 Hexadecapole moment (field-independent basis, Debye-Ang**3):
 XXXX=           -233.0219 YYYY=            -33.5673 ZZZZ=            -14.5769 XXXY=             -5.4271
 XXXZ=              7.0495 YYYX=             -0.0269 YYYZ=             -2.3264 ZZZX=              1.1686
 ZZZY=             -1.0791 XXYY=            -31.0777 XXZZ=            -36.8084 YYZZ=             -7.9550
 XXYZ=             -5.4281 YYXZ=              1.2326 ZZXY=             -0.4216
 N-N= 6.717050428895D+01 E-N=-6.690902924551D+02  KE= 2.246789612448D+02
 Calling FoFJK, ICntrl=      2127 FMM=F ISym2X=0 I1Cent= 0 IOpClX= 0 NMat=1 NMatS=1 NMatT=0.
 ***** Axes restored to original set *****
 -------------------------------------------------------------------
 Center     Atomic                   Forces (Hartrees/Bohr)
 Number     Number              X              Y              Z
 -------------------------------------------------------------------
      1        8          -0.000015176    0.002036119    0.000812161
      2        8          -0.004101526   -0.000658473   -0.000869811
      3        1          -0.002406152   -0.016537655    0.025338735
      4        8           0.013998856   -0.011282126   -0.035234696
      5        1          -0.007476001    0.026442134    0.009953611
 -------------------------------------------------------------------
 Cartesian Forces:  Max     0.035234696 RMS     0.014973405

 GradGradGradGradGradGradGradGradGradGradGradGradGradGradGradGradGradGrad
 Berny optimization.
 Internal  Forces:  Max     0.038518544 RMS     0.016190857
 Search for a saddle point.
 Step number   1 out of a maximum of  100
 All quantities printed in internal units (Hartrees-Bohrs-Radians)
 Swaping is turned off.
 Second derivative matrix not updated -- first step.
 The second derivative matrix:
                          R1        R2        R3        R4        A1
           R1           0.78603
           R2          -0.01484  -0.02671
           R3          -0.00808   0.01183   0.47441
           R4          -0.00232   0.03118   0.00933   0.58474
           A1           0.00110   0.05444   0.00985   0.00997   0.07127
           A2           0.00173  -0.08607  -0.00218   0.01858   0.01084
           A3          -0.00129  -0.01936   0.00001   0.00145   0.00061
           A4          -0.02937   0.21181   0.01652   0.00936   0.10649
           A5          -0.00332  -0.10387  -0.03019  -0.00679   0.00097
                          A2        A3        A4        A5
           A2          -0.06963
           A3          -0.01829  -0.00326
           A4           0.04019   0.01918   0.34626
           A5          -0.11623  -0.01544   0.10326  -0.04807
     Eigenvalues ---   -0.32124  -0.00139   0.00290   0.02856   0.07466
     Eigenvalues ---    0.45950   0.49016   0.59205   0.78982
 Eigenvectors required to have negative eigenvalues:
                          R2        A5        A2        A4        A3
   1                    0.57205   0.55598   0.51077  -0.29940   0.10941
                          R4        R3        A1        R1
   1                   -0.02313   0.02065  -0.01369   0.00084
 RFO step:  Lambda0=1.673704663D-04 Lambda=-3.92395932D-02.
 Linear search not attempted -- option 19 set.
 Maximum step size (   0.300) exceeded in Quadratic search.
    -- Step size scaled by   0.249
 Iteration  1 RMS(Cart)=  0.05688674 RMS(Int)=  0.03203626
 Iteration  2 RMS(Cart)=  0.03380405 RMS(Int)=  0.00125875
 Iteration  3 RMS(Cart)=  0.00111140 RMS(Int)=  0.00000017
 Iteration  4 RMS(Cart)=  0.00000017 RMS(Int)=  0.00000000
 Variable       Old X    -DE/DX   Delta X   Delta X   Delta X     New X
                                 (Linear)    (Quad)   (Total)
    R1        2.26062  -0.00203   0.00000  -0.00025  -0.00025   2.26037
    R2        4.82805   0.00393   0.00000   0.00170   0.00170   4.82975
    R3        1.81261  -0.01778   0.00000  -0.01170  -0.01170   1.80091
    R4        1.81140  -0.01942   0.00000  -0.00834  -0.00834   1.80306
    A1        1.79794   0.00069   0.00000   0.00074   0.00074   1.79868
    A2        3.21642   0.00902   0.00000  -0.02062  -0.02062   3.19580
    A3        3.46061   0.03852   0.00000   0.29495   0.29495   3.75556
    A4        1.63191   0.00874   0.00000   0.00462   0.00462   1.63653
    A5        3.44637  -0.00214   0.00000  -0.04847  -0.04847   3.39790
         Item               Value     Threshold  Converged?
 Maximum Force            0.038519     0.000450     NO 
 RMS     Force            0.016191     0.000300     NO 
 Maximum Displacement     0.159211     0.001800     NO 
 RMS     Displacement     0.088783     0.001200     NO 
 Predicted change in Energy=-1.165624D-02
 GradGradGradGradGradGradGradGradGradGradGradGradGradGradGradGradGradGrad

                          Input orientation:                          
 ---------------------------------------------------------------------
 Center     Atomic      Atomic             Coordinates (Angstroms)
 Number     Number       Type             X           Y           Z
 ---------------------------------------------------------------------
      1          8           0       -1.144011   -0.576895   -0.091926
      2          8           0       -0.984144    0.592804    0.100406
      3          1           0        1.541760    0.881129   -0.161784
      4          8           0        1.705324   -0.056706   -0.117916
      5          1           0        1.794588   -0.806745    0.465048
 ---------------------------------------------------------------------
                    Distance matrix (angstroms):
                    1          2          3          4          5
     1  O    0.000000
     2  O    1.196138   0.000000
     3  H    3.056809   2.555791   0.000000
     4  O    2.896546   2.775385   0.953001   0.000000
     5  H    2.999736   3.132580   1.818175   0.954136   0.000000
 Stoichiometry    H2O3
 Framework group  C1[X(H2O3)]
 Deg. of freedom     9
 Full point group                 C1      NOp   1
 Largest Abelian subgroup         C1      NOp   1
 Largest concise Abelian subgroup C1      NOp   1
                         Standard orientation:                         
 ---------------------------------------------------------------------
 Center     Atomic      Atomic             Coordinates (Angstroms)
 Number     Number       Type             X           Y           Z
 ---------------------------------------------------------------------
      1          8           0       -1.136825   -0.579475   -0.056004
      2          8           0       -0.988586    0.601505    0.062562
      3          1           0        1.540339    0.891831   -0.166166
      4          8           0        1.709007   -0.039826   -0.057647
      5          1           0        1.790889   -0.749459    0.574880
 ---------------------------------------------------------------------
 Rotational constants (GHZ):     38.6758763      5.6834339      5.0032534
 Standard basis: 6-31+G(d,p) (6D, 7F)
 There are    67 symmetry adapted basis functions of A   symmetry.
 Integral buffers will be    262144 words long.
 Raffenetti 2 integral format.
 Two-electron integral symmetry is turned on.
    67 basis functions,   110 primitive gaussians,    67 cartesian basis functions
    13 alpha electrons       13 beta electrons
       nuclear repulsion energy        67.1831288130 Hartrees.
 NAtoms=    5 NActive=    5 NUniq=    5 SFac= 7.50D-01 NAtFMM=   80 NAOKFM=F Big=F
 One-electron integrals computed using PRISM.
 NBasis=    67 RedAO= T  NBF=    67
 NBsUse=    67 1.00D-06 NBFU=    67
 Initial guess read from the read-write file.
 B after Tr=     0.000000    0.000000    0.000000
         Rot=    1.000000    0.000000    0.000000    0.000000 Ang=   0.00 deg.
 Initial guess orbital symmetries:
       Occupied  (A) (A) (A) (A) (A) (A) (A) (A) (A) (A) (A) (A)
                 (A)
       Virtual   (A) (A) (A) (A) (A) (A) (A) (A) (A) (A) (A) (A)
                 (A) (A) (A) (A) (A) (A) (A) (A) (A) (A) (A) (A)
                 (A) (A) (A) (A) (A) (A) (A) (A) (A) (A) (A) (A)
                 (A) (A) (A) (A) (A) (A) (A) (A) (A) (A) (A) (A)
                 (A) (A) (A) (A) (A) (A)
 Harris functional with IExCor= 1009 diagonalized for initial guess.
 ExpMin= 8.45D-02 ExpMax= 5.48D+03 ExpMxC= 8.25D+02 IAcc=2 IRadAn=         0 AccDes= 0.00D+00
 HarFok:  IExCor= 1009 AccDes= 0.00D+00 IRadAn=         0 IDoV= 1
 ScaDFX=  1.000000  1.000000  1.000000  1.000000
 FoFCou: FMM=F IPFlag=           0 FMFlag=      100000 FMFlg1=           0
         NFxFlg=           0 DoJE=T BraDBF=F KetDBF=T FulRan=T
         Omega=  0.000000  0.000000  1.000000  0.000000  0.000000 ICntrl=     500 IOpCl=  0
         NMat0=    1 NMatS0=    1 NMatT0=    0 NMatD0=    1 NMtDS0=    0 NMtDT0=    0
         I1Cent=           4 NGrid=           0.
 Petite list used in FoFCou.
 Requested convergence on RMS density matrix=1.00D-08 within 128 cycles.
 Requested convergence on MAX density matrix=1.00D-06.
 Requested convergence on             energy=1.00D-06.
 No special actions if energy rises.
 Keep R1 ints in memory in canonical form, NReq=3550937.
 Integral accuracy reduced to 1.0D-05 until final iterations.
 Problem detected with inexpensive integrals.
 Switching to full accuracy and repeating last cycle.
 SCF Done:  E(RM062X) =  -226.574881371     A.U. after   50 cycles
             Convg  =    0.1016D-08             -V/T =  2.0082
 Calling FoFJK, ICntrl=      2127 FMM=F ISym2X=0 I1Cent= 0 IOpClX= 0 NMat=1 NMatS=1 NMatT=0.
 ***** Axes restored to original set *****
 -------------------------------------------------------------------
 Center     Atomic                   Forces (Hartrees/Bohr)
 Number     Number              X              Y              Z
 -------------------------------------------------------------------
      1        8          -0.000518151    0.001527898    0.000344306
      2        8          -0.003583349   -0.000237963   -0.000285163
      3        1          -0.001973999   -0.005919567    0.030589350
      4        8           0.010916998   -0.019964315   -0.048910292
      5        1          -0.004841498    0.024593946    0.018261800
 -------------------------------------------------------------------
 Cartesian Forces:  Max     0.048910292 RMS     0.018003913

 GradGradGradGradGradGradGradGradGradGradGradGradGradGradGradGradGradGrad
 Berny optimization.
 Internal  Forces:  Max     0.053413689 RMS     0.018453105
 Search for a saddle point.
 Step number   2 out of a maximum of  100
 All quantities printed in internal units (Hartrees-Bohrs-Radians)
 Swaping is turned off.
 Update second derivatives using D2CorX and points    1    2
 The second derivative matrix:
                          R1        R2        R3        R4        A1
           R1           0.78602
           R2          -0.01490  -0.02714
           R3          -0.00836   0.00986   0.46557
           R4          -0.00252   0.02977   0.00303   0.58025
           A1           0.00106   0.05417   0.00861   0.00908   0.07110
           A2           0.00182  -0.08546   0.00072   0.02064   0.01122
           A3          -0.00218  -0.02535  -0.02930  -0.01944  -0.00319
           A4          -0.02939   0.21171   0.01604   0.00901   0.10643
           A5          -0.00333  -0.10400  -0.03040  -0.00695   0.00089
                          A2        A3        A4        A5
           A2          -0.07035
           A3          -0.01186  -0.05686
           A4           0.04030   0.01827   0.34624
           A5          -0.11570  -0.02245   0.10315  -0.04717
     Eigenvalues ---   -0.32253  -0.05544   0.00204   0.02888   0.07461
     Eigenvalues ---    0.45672   0.48670   0.58687   0.78981
 Eigenvectors required to have negative eigenvalues:
                          R2        A5        A2        A4        A3
   1                    0.57140   0.55410   0.50460  -0.29907   0.14565
                          R3        R4        A1        R1
   1                    0.02549  -0.01995  -0.01233   0.00104
 RFO step:  Lambda0=3.217535712D-04 Lambda=-8.55788671D-02.
 Linear search not attempted -- option 19 set.
 Maximum step size (   0.300) exceeded in Quadratic search.
    -- Step size scaled by   0.329
 Iteration  1 RMS(Cart)=  0.06158721 RMS(Int)=  0.03262103
 Iteration  2 RMS(Cart)=  0.03652993 RMS(Int)=  0.00135033
 Iteration  3 RMS(Cart)=  0.00113552 RMS(Int)=  0.00000035
 Iteration  4 RMS(Cart)=  0.00000038 RMS(Int)=  0.00000000
 Variable       Old X    -DE/DX   Delta X   Delta X   Delta X     New X
                                 (Linear)    (Quad)   (Total)
    R1        2.26037  -0.00128   0.00000   0.00035   0.00035   2.26072
    R2        4.82975   0.00400   0.00000  -0.02696  -0.02696   4.80278
    R3        1.80091  -0.00523   0.00000   0.00991   0.00991   1.81082
    R4        1.80306  -0.00882   0.00000   0.00529   0.00529   1.80835
    A1        1.79868   0.00145   0.00000   0.00607   0.00607   1.80475
    A2        3.19580   0.00559   0.00000  -0.02944  -0.02944   3.16636
    A3        3.75556   0.05341   0.00000   0.29477   0.29477   4.05033
    A4        1.63653   0.00740   0.00000   0.01607   0.01607   1.65259
    A5        3.39790  -0.00090   0.00000  -0.03310  -0.03310   3.36481
         Item               Value     Threshold  Converged?
 Maximum Force            0.053414     0.000450     NO 
 RMS     Force            0.018453     0.000300     NO 
 Maximum Displacement     0.148411     0.001800     NO 
 RMS     Displacement     0.094549     0.001200     NO 
 Predicted change in Energy=-1.793724D-02
 GradGradGradGradGradGradGradGradGradGradGradGradGradGradGradGradGradGrad

                          Input orientation:                          
 ---------------------------------------------------------------------
 Center     Atomic      Atomic             Coordinates (Angstroms)
 Number     Number       Type             X           Y           Z
 ---------------------------------------------------------------------
      1          8           0       -1.161012   -0.566140   -0.135925
      2          8           0       -0.970450    0.580940    0.145292
      3          1           0        1.541927    0.846076   -0.132212
      4          8           0        1.704718   -0.096050   -0.196452
      5          1           0        1.798335   -0.731239    0.513123
 ---------------------------------------------------------------------
                    Distance matrix (angstroms):
                    1          2          3          4          5
     1  O    0.000000
     2  O    1.196323   0.000000
     3  H    3.049631   2.541524   0.000000
     4  O    2.904661   2.780581   0.958243   0.000000
     5  H    3.034181   3.085982   1.723405   0.956935   0.000000
 Stoichiometry    H2O3
 Framework group  C1[X(H2O3)]
 Deg. of freedom     9
 Full point group                 C1      NOp   1
 Largest Abelian subgroup         C1      NOp   1
 Largest concise Abelian subgroup C1      NOp   1
                         Standard orientation:                         
 ---------------------------------------------------------------------
 Center     Atomic      Atomic             Coordinates (Angstroms)
 Number     Number       Type             X           Y           Z
 ---------------------------------------------------------------------
      1          8           0       -1.145262   -0.577351   -0.051956
      2          8           0       -0.983235    0.602750    0.058941
      3          1           0        1.533916    0.875243   -0.162517
      4          8           0        1.713240   -0.062190   -0.077112
      5          1           0        1.788142   -0.580919    0.723534
 ---------------------------------------------------------------------
 Rotational constants (GHZ):     38.7487590      5.6476698      4.9977380
 Standard basis: 6-31+G(d,p) (6D, 7F)
 There are    67 symmetry adapted basis functions of A   symmetry.
 Integral buffers will be    262144 words long.
 Raffenetti 2 integral format.
 Two-electron integral symmetry is turned on.
    67 basis functions,   110 primitive gaussians,    67 cartesian basis functions
    13 alpha electrons       13 beta electrons
       nuclear repulsion energy        67.1189449648 Hartrees.
 NAtoms=    5 NActive=    5 NUniq=    5 SFac= 7.50D-01 NAtFMM=   80 NAOKFM=F Big=F
 One-electron integrals computed using PRISM.
 NBasis=    67 RedAO= T  NBF=    67
 NBsUse=    67 1.00D-06 NBFU=    67
 Initial guess read from the read-write file.
 B after Tr=     0.000000    0.000000    0.000000
         Rot=    1.000000    0.000000    0.000000    0.000000 Ang=   0.00 deg.
 Initial guess orbital symmetries:
       Occupied  (A) (A) (A) (A) (A) (A) (A) (A) (A) (A) (A) (A)
                 (A)
       Virtual   (A) (A) (A) (A) (A) (A) (A) (A) (A) (A) (A) (A)
                 (A) (A) (A) (A) (A) (A) (A) (A) (A) (A) (A) (A)
                 (A) (A) (A) (A) (A) (A) (A) (A) (A) (A) (A) (A)
                 (A) (A) (A) (A) (A) (A) (A) (A) (A) (A) (A) (A)
                 (A) (A) (A) (A) (A) (A)
 Harris functional with IExCor= 1009 diagonalized for initial guess.
 ExpMin= 8.45D-02 ExpMax= 5.48D+03 ExpMxC= 8.25D+02 IAcc=2 IRadAn=         0 AccDes= 0.00D+00
 HarFok:  IExCor= 1009 AccDes= 0.00D+00 IRadAn=         0 IDoV= 1
 ScaDFX=  1.000000  1.000000  1.000000  1.000000
 FoFCou: FMM=F IPFlag=           0 FMFlag=      100000 FMFlg1=           0
         NFxFlg=           0 DoJE=T BraDBF=F KetDBF=T FulRan=T
         Omega=  0.000000  0.000000  1.000000  0.000000  0.000000 ICntrl=     500 IOpCl=  0
         NMat0=    1 NMatS0=    1 NMatT0=    0 NMatD0=    1 NMtDS0=    0 NMtDT0=    0
         I1Cent=           4 NGrid=           0.
 Petite list used in FoFCou.
 Requested convergence on RMS density matrix=1.00D-08 within 128 cycles.
 Requested convergence on MAX density matrix=1.00D-06.
 Requested convergence on             energy=1.00D-06.
 No special actions if energy rises.
 Keep R1 ints in memory in canonical form, NReq=3550937.
 Integral accuracy reduced to 1.0D-05 until final iterations.
 Initial convergence to 1.0D-05 achieved.  Increase integral accuracy.
 SCF Done:  E(RM062X) =  -226.589708052     A.U. after   29 cycles
             Convg  =    0.3496D-09             -V/T =  2.0081
 Calling FoFJK, ICntrl=      2127 FMM=F ISym2X=0 I1Cent= 0 IOpClX= 0 NMat=1 NMatS=1 NMatT=0.
 ***** Axes restored to original set *****
 -------------------------------------------------------------------
 Center     Atomic                   Forces (Hartrees/Bohr)
 Number     Number              X              Y              Z
 -------------------------------------------------------------------
      1        8          -0.000526222    0.001662421    0.000174078
      2        8          -0.003536304   -0.000412357    0.000029845
      3        1           0.000078320   -0.007616302    0.024085278
      4        8           0.006677814   -0.014768821   -0.037225158
      5        1          -0.002693607    0.021135058    0.012935957
 -------------------------------------------------------------------
 Cartesian Forces:  Max     0.037225158 RMS     0.013960828

 GradGradGradGradGradGradGradGradGradGradGradGradGradGradGradGradGradGrad
 Berny optimization.
 Internal  Forces:  Max     0.044234368 RMS     0.015155260
 Search for a saddle point.
 Step number   3 out of a maximum of  100
 All quantities printed in internal units (Hartrees-Bohrs-Radians)
 Swaping is turned off.
 Update second derivatives using D2CorX and points    1    2    3
 The second derivative matrix:
                          R1        R2        R3        R4        A1
           R1           0.78605
           R2          -0.01512  -0.02577
           R3          -0.00822   0.00898   0.46613
           R4          -0.00254   0.02989   0.00296   0.58026
           A1           0.00109   0.05395   0.00875   0.00907   0.07113
           A2           0.00165  -0.08440   0.00003   0.02073   0.01106
           A3          -0.00056  -0.03581  -0.02258  -0.02031  -0.00153
           A4          -0.02942   0.21193   0.01590   0.00903   0.10639
           A5          -0.00355  -0.10260  -0.03130  -0.00683   0.00067
                          A2        A3        A4        A5
           A2          -0.06952
           A3          -0.01996   0.02241
           A4           0.04047   0.01660   0.34627
           A5          -0.11461  -0.03304   0.10338  -0.04576
     Eigenvalues ---   -0.32240  -0.00190   0.02671   0.03276   0.07522
     Eigenvalues ---    0.45711   0.48672   0.58714   0.78986
 Eigenvectors required to have negative eigenvalues:
                          R2        A5        A2        A4        A3
   1                    0.57053   0.55312   0.50344  -0.29909   0.15629
                          R3        R4        A1        R1
   1                    0.02616  -0.01972  -0.01196   0.00110
 RFO step:  Lambda0=2.206056582D-04 Lambda=-3.14903050D-02.
 Linear search not attempted -- option 19 set.
 Maximum step size (   0.300) exceeded in Quadratic search.
    -- Step size scaled by   0.250
 Iteration  1 RMS(Cart)=  0.08087939 RMS(Int)=  0.01230582
 Iteration  2 RMS(Cart)=  0.01580235 RMS(Int)=  0.00023909
 Iteration  3 RMS(Cart)=  0.00020232 RMS(Int)=  0.00000003
 Iteration  4 RMS(Cart)=  0.00000003 RMS(Int)=  0.00000000
 Variable       Old X    -DE/DX   Delta X   Delta X   Delta X     New X
                                 (Linear)    (Quad)   (Total)
    R1        2.26072  -0.00131   0.00000   0.00028   0.00028   2.26100
    R2        4.80278   0.00400   0.00000   0.08889   0.08889   4.89167
    R3        1.81082  -0.00431   0.00000   0.00529   0.00529   1.81611
    R4        1.80835  -0.00494   0.00000   0.00683   0.00683   1.81517
    A1        1.80475   0.00142   0.00000   0.02293   0.02293   1.82768
    A2        3.16636   0.00253   0.00000  -0.17246  -0.17246   2.99391
    A3        4.05033   0.04423   0.00000   0.22219   0.22219   4.27253
    A4        1.65259   0.00643   0.00000  -0.03873  -0.03873   1.61386
    A5        3.36481  -0.00014   0.00000  -0.02977  -0.02977   3.33504
         Item               Value     Threshold  Converged?
 Maximum Force            0.044234     0.000450     NO 
 RMS     Force            0.015155     0.000300     NO 
 Maximum Displacement     0.136065     0.001800     NO 
 RMS     Displacement     0.088901     0.001200     NO 
 Predicted change in Energy=-9.105807D-03
 GradGradGradGradGradGradGradGradGradGradGradGradGradGradGradGradGradGrad

                          Input orientation:                          
 ---------------------------------------------------------------------
 Center     Atomic      Atomic             Coordinates (Angstroms)
 Number     Number       Type             X           Y           Z
 ---------------------------------------------------------------------
      1          8           0       -1.215579   -0.557385   -0.169506
      2          8           0       -0.981051    0.565059    0.172045
      3          1           0        1.580831    0.814311   -0.102341
      4          8           0        1.692569   -0.129162   -0.247168
      5          1           0        1.836747   -0.659236    0.540796
 ---------------------------------------------------------------------
                    Distance matrix (angstroms):
                    1          2          3          4          5
     1  O    0.000000
     2  O    1.196470   0.000000
     3  H    3.115440   2.588563   0.000000
     4  O    2.940533   2.793909   0.961041   0.000000
     5  H    3.135537   3.094327   1.628023   0.960548   0.000000
 Stoichiometry    H2O3
 Framework group  C1[X(H2O3)]
 Deg. of freedom     9
 Full point group                 C1      NOp   1
 Largest Abelian subgroup         C1      NOp   1
 Largest concise Abelian subgroup C1      NOp   1
                         Standard orientation:                         
 ---------------------------------------------------------------------
 Center     Atomic      Atomic             Coordinates (Angstroms)
 Number     Number       Type             X           Y           Z
 ---------------------------------------------------------------------
      1          8           0       -1.175426   -0.571335   -0.040378
      2          8           0       -0.978084    0.605384    0.048668
      3          1           0        1.589070    0.859745   -0.165046
      4          8           0        1.724810   -0.088556   -0.088221
      5          1           0        1.840529   -0.423695    0.804496
 ---------------------------------------------------------------------
 Rotational constants (GHZ):     38.9696837      5.5197403      4.9123273
 Standard basis: 6-31+G(d,p) (6D, 7F)
 There are    67 symmetry adapted basis functions of A   symmetry.
 Integral buffers will be    262144 words long.
 Raffenetti 2 integral format.
 Two-electron integral symmetry is turned on.
    67 basis functions,   110 primitive gaussians,    67 cartesian basis functions
    13 alpha electrons       13 beta electrons
       nuclear repulsion energy        66.7952390955 Hartrees.
 NAtoms=    5 NActive=    5 NUniq=    5 SFac= 7.50D-01 NAtFMM=   80 NAOKFM=F Big=F
 One-electron integrals computed using PRISM.
 NBasis=    67 RedAO= T  NBF=    67
 NBsUse=    67 1.00D-06 NBFU=    67
 Initial guess read from the read-write file.
 B after Tr=     0.000000    0.000000    0.000000
         Rot=    1.000000    0.000000    0.000000    0.000000 Ang=   0.00 deg.
 Initial guess orbital symmetries:
       Occupied  (A) (A) (A) (A) (A) (A) (A) (A) (A) (A) (A) (A)
                 (A)
       Virtual   (A) (A) (A) (A) (A) (A) (A) (A) (A) (A) (A) (A)
                 (A) (A) (A) (A) (A) (A) (A) (A) (A) (A) (A) (A)
                 (A) (A) (A) (A) (A) (A) (A) (A) (A) (A) (A) (A)
                 (A) (A) (A) (A) (A) (A) (A) (A) (A) (A) (A) (A)
                 (A) (A) (A) (A) (A) (A)
 Harris functional with IExCor= 1009 diagonalized for initial guess.
 ExpMin= 8.45D-02 ExpMax= 5.48D+03 ExpMxC= 8.25D+02 IAcc=2 IRadAn=         0 AccDes= 0.00D+00
 HarFok:  IExCor= 1009 AccDes= 0.00D+00 IRadAn=         0 IDoV= 1
 ScaDFX=  1.000000  1.000000  1.000000  1.000000
 FoFCou: FMM=F IPFlag=           0 FMFlag=      100000 FMFlg1=           0
         NFxFlg=           0 DoJE=T BraDBF=F KetDBF=T FulRan=T
         Omega=  0.000000  0.000000  1.000000  0.000000  0.000000 ICntrl=     500 IOpCl=  0
         NMat0=    1 NMatS0=    1 NMatT0=    0 NMatD0=    1 NMtDS0=    0 NMtDT0=    0
         I1Cent=           4 NGrid=           0.
 Petite list used in FoFCou.
 Requested convergence on RMS density matrix=1.00D-08 within 128 cycles.
 Requested convergence on MAX density matrix=1.00D-06.
 Requested convergence on             energy=1.00D-06.
 No special actions if energy rises.
 Keep R1 ints in memory in canonical form, NReq=3550937.
 Integral accuracy reduced to 1.0D-05 until final iterations.
 Initial convergence to 1.0D-05 achieved.  Increase integral accuracy.
 SCF Done:  E(RM062X) =  -226.597356498     A.U. after   73 cycles
             Convg  =    0.1790D-08             -V/T =  2.0081
 Calling FoFJK, ICntrl=      2127 FMM=F ISym2X=0 I1Cent= 0 IOpClX= 0 NMat=1 NMatS=1 NMatT=0.
 ***** Axes restored to original set *****
 -------------------------------------------------------------------
 Center     Atomic                   Forces (Hartrees/Bohr)
 Number     Number              X              Y              Z
 -------------------------------------------------------------------
      1        8           0.000273968    0.001922916    0.000190557
      2        8          -0.003780598   -0.000610813    0.000138722
      3        1           0.001113712   -0.005539544    0.011830301
      4        8           0.002636155   -0.008197194   -0.016544010
      5        1          -0.000243236    0.012424634    0.004384430
 -------------------------------------------------------------------
 Cartesian Forces:  Max     0.016544010 RMS     0.006889019

 GradGradGradGradGradGradGradGradGradGradGradGradGradGradGradGradGradGrad
 Berny optimization.
 Internal  Forces:  Max     0.022933162 RMS     0.008086215
 Search for a saddle point.
 Step number   4 out of a maximum of  100
 All quantities printed in internal units (Hartrees-Bohrs-Radians)
 Swaping is turned off.
 Update second derivatives using D2CorX and points    2    3    4
 The second derivative matrix:
                          R1        R2        R3        R4        A1
           R1           0.78615
           R2          -0.01491  -0.02677
           R3          -0.00830   0.00871   0.46618
           R4          -0.00253   0.02978   0.00294   0.58025
           A1           0.00134   0.05407   0.00852   0.00905   0.07164
           A2           0.00128  -0.08225   0.00056   0.02097   0.01094
           A3           0.00230  -0.03404  -0.02524  -0.02050   0.00435
           A4          -0.02961   0.21216   0.01609   0.00907   0.10610
           A5          -0.00372  -0.10241  -0.03112  -0.00679   0.00041
                          A2        A3        A4        A5
           A2          -0.07418
           A3          -0.02175   0.09082
           A4           0.03992   0.01301   0.34636
           A5          -0.11515  -0.03610   0.10346  -0.04571
     Eigenvalues ---   -0.32154  -0.00499   0.02882   0.07055   0.10037
     Eigenvalues ---    0.45734   0.48692   0.58728   0.79000
 Eigenvectors required to have negative eigenvalues:
                          R2        A5        A2        A4        A3
   1                    0.56896   0.55562   0.50986  -0.29790   0.13262
                          R3        R4        A1        R1
   1                    0.02587  -0.02039  -0.01418   0.00086
 RFO step:  Lambda0=3.102779368D-05 Lambda=-6.98146819D-03.
 Linear search not attempted -- option 19 set.
 Maximum step size (   0.300) exceeded in Quadratic search.
    -- Step size scaled by   0.382
 Iteration  1 RMS(Cart)=  0.06342261 RMS(Int)=  0.00706960
 Iteration  2 RMS(Cart)=  0.00567970 RMS(Int)=  0.00002697
 Iteration  3 RMS(Cart)=  0.00002015 RMS(Int)=  0.00000000
 Iteration  4 RMS(Cart)=  0.00000000 RMS(Int)=  0.00000000
 Variable       Old X    -DE/DX   Delta X   Delta X   Delta X     New X
                                 (Linear)    (Quad)   (Total)
    R1        2.26100  -0.00171   0.00000  -0.00007  -0.00007   2.26093
    R2        4.89167   0.00344   0.00000   0.16360   0.16360   5.05527
    R3        1.81611  -0.00236   0.00000   0.00091   0.00091   1.81702
    R4        1.81517  -0.00345   0.00000   0.00147   0.00147   1.81664
    A1        1.82768  -0.00009   0.00000  -0.00441  -0.00441   1.82327
    A2        2.99391  -0.00040   0.00000  -0.22241  -0.22241   2.77150
    A3        4.27253   0.02293   0.00000   0.09621   0.09621   4.36874
    A4        1.61386   0.00549   0.00000  -0.06163  -0.06163   1.55223
    A5        3.33504  -0.00002   0.00000  -0.02630  -0.02630   3.30873
         Item               Value     Threshold  Converged?
 Maximum Force            0.022933     0.000450     NO 
 RMS     Force            0.008086     0.000300     NO 
 Maximum Displacement     0.095385     0.001800     NO 
 RMS     Displacement     0.067526     0.001200     NO 
 Predicted change in Energy=-2.369317D-03
 GradGradGradGradGradGradGradGradGradGradGradGradGradGradGradGradGradGrad

                          Input orientation:                          
 ---------------------------------------------------------------------
 Center     Atomic      Atomic             Coordinates (Angstroms)
 Number     Number       Type             X           Y           Z
 ---------------------------------------------------------------------
      1          8           0       -1.258116   -0.555075   -0.183865
      2          8           0       -1.020584    0.560501    0.177408
      3          1           0        1.631306    0.796935   -0.083224
      4          8           0        1.675263   -0.146694   -0.262564
      5          1           0        1.885647   -0.622080    0.546072
 ---------------------------------------------------------------------
                    Distance matrix (angstroms):
                    1          2          3          4          5
     1  O    0.000000
     2  O    1.196431   0.000000
     3  H    3.191680   2.675136   0.000000
     4  O    2.962715   2.821576   0.961525   0.000000
     5  H    3.228086   3.159206   1.572993   0.961325   0.000000
 Stoichiometry    H2O3
 Framework group  C1[X(H2O3)]
 Deg. of freedom     9
 Full point group                 C1      NOp   1
 Largest Abelian subgroup         C1      NOp   1
 Largest concise Abelian subgroup C1      NOp   1
                         Standard orientation:                         
 ---------------------------------------------------------------------
 Center     Atomic      Atomic             Coordinates (Angstroms)
 Number     Number       Type             X           Y           Z
 ---------------------------------------------------------------------
      1          8           0       -1.189048   -0.571406   -0.032074
      2          8           0       -0.993460    0.606621    0.041722
      3          1           0        1.662159    0.857124   -0.161467
      4          8           0        1.735166   -0.099097   -0.091877
      5          1           0        1.916581   -0.346071    0.819297
 ---------------------------------------------------------------------
 Rotational constants (GHZ):     38.9721650      5.3958935      4.8155293
 Standard basis: 6-31+G(d,p) (6D, 7F)
 There are    67 symmetry adapted basis functions of A   symmetry.
 Integral buffers will be    262144 words long.
 Raffenetti 2 integral format.
 Two-electron integral symmetry is turned on.
    67 basis functions,   110 primitive gaussians,    67 cartesian basis functions
    13 alpha electrons       13 beta electrons
       nuclear repulsion energy        66.4444491558 Hartrees.
 NAtoms=    5 NActive=    5 NUniq=    5 SFac= 7.50D-01 NAtFMM=   80 NAOKFM=F Big=F
 One-electron integrals computed using PRISM.
 NBasis=    67 RedAO= T  NBF=    67
 NBsUse=    67 1.00D-06 NBFU=    67
 Initial guess read from the read-write file.
 B after Tr=     0.000000    0.000000    0.000000
         Rot=    1.000000    0.000000    0.000000    0.000000 Ang=   0.00 deg.
 Initial guess orbital symmetries:
       Occupied  (A) (A) (A) (A) (A) (A) (A) (A) (A) (A) (A) (A)
                 (A)
       Virtual   (A) (A) (A) (A) (A) (A) (A) (A) (A) (A) (A) (A)
                 (A) (A) (A) (A) (A) (A) (A) (A) (A) (A) (A) (A)
                 (A) (A) (A) (A) (A) (A) (A) (A) (A) (A) (A) (A)
                 (A) (A) (A) (A) (A) (A) (A) (A) (A) (A) (A) (A)
                 (A) (A) (A) (A) (A) (A)
 Harris functional with IExCor= 1009 diagonalized for initial guess.
 ExpMin= 8.45D-02 ExpMax= 5.48D+03 ExpMxC= 8.25D+02 IAcc=2 IRadAn=         0 AccDes= 0.00D+00
 HarFok:  IExCor= 1009 AccDes= 0.00D+00 IRadAn=         0 IDoV= 1
 ScaDFX=  1.000000  1.000000  1.000000  1.000000
 FoFCou: FMM=F IPFlag=           0 FMFlag=      100000 FMFlg1=           0
         NFxFlg=           0 DoJE=T BraDBF=F KetDBF=T FulRan=T
         Omega=  0.000000  0.000000  1.000000  0.000000  0.000000 ICntrl=     500 IOpCl=  0
         NMat0=    1 NMatS0=    1 NMatT0=    0 NMatD0=    1 NMtDS0=    0 NMtDT0=    0
         I1Cent=           4 NGrid=           0.
 Petite list used in FoFCou.
 Requested convergence on RMS density matrix=1.00D-08 within 128 cycles.
 Requested convergence on MAX density matrix=1.00D-06.
 Requested convergence on             energy=1.00D-06.
 No special actions if energy rises.
 Keep R1 ints in memory in canonical form, NReq=3550937.
 Integral accuracy reduced to 1.0D-05 until final iterations.
 Initial convergence to 1.0D-05 achieved.  Increase integral accuracy.
 SCF Done:  E(RM062X) =  -226.599250235     A.U. after   35 cycles
             Convg  =    0.2896D-08             -V/T =  2.0081
 Calling FoFJK, ICntrl=      2127 FMM=F ISym2X=0 I1Cent= 0 IOpClX= 0 NMat=1 NMatS=1 NMatT=0.
 ***** Axes restored to original set *****
 -------------------------------------------------------------------
 Center     Atomic                   Forces (Hartrees/Bohr)
 Number     Number              X              Y              Z
 -------------------------------------------------------------------
      1        8           0.000460115    0.001795112    0.000221079
      2        8          -0.003142603   -0.000637970    0.000048970
      3        1           0.000389953   -0.002364579    0.004498771
      4        8           0.001634899   -0.003781768   -0.006009859
      5        1           0.000657636    0.004989204    0.001241039
 -------------------------------------------------------------------
 Cartesian Forces:  Max     0.006009859 RMS     0.002824990

 GradGradGradGradGradGradGradGradGradGradGradGradGradGradGradGradGradGrad
 Berny optimization.
 Internal  Forces:  Max     0.008461235 RMS     0.003528204
 Search for a saddle point.
 Step number   5 out of a maximum of  100
 All quantities printed in internal units (Hartrees-Bohrs-Radians)
 Swaping is turned off.
 Update second derivatives using D2CorX and points    3    4    5
 The second derivative matrix:
                          R1        R2        R3        R4        A1
           R1           0.78629
           R2          -0.01398  -0.02690
           R3          -0.00851   0.00728   0.46648
           R4          -0.00268   0.02867   0.00316   0.58041
           A1           0.00141   0.05451   0.00841   0.00896   0.07167
           A2          -0.00001  -0.08178   0.00255   0.02251   0.01034
           A3           0.00428  -0.02623  -0.02818  -0.02273   0.00532
           A4          -0.03039   0.20942   0.01726   0.00995   0.10570
           A5          -0.00386  -0.10217  -0.03090  -0.00662   0.00035
                          A2        A3        A4        A5
           A2          -0.07528
           A3          -0.03224   0.11384
           A4           0.04360   0.00409   0.34975
           A5          -0.11554  -0.03706   0.10378  -0.04578
     Eigenvalues ---   -0.32106  -0.00391   0.02875   0.07194   0.12105
     Eigenvalues ---    0.45735   0.48807   0.58800   0.79028
 Eigenvectors required to have negative eigenvalues:
                          R2        A5        A2        A4        A3
   1                    0.56260   0.55698   0.51966  -0.29434   0.12350
                          R3        R4        A1        R1
   1                    0.02609  -0.02036  -0.01482   0.00066
 RFO step:  Lambda0=3.626363826D-07 Lambda=-3.93440759D-03.
 Linear search not attempted -- option 19 set.
 Maximum step size (   0.300) exceeded in Quadratic search.
    -- Step size scaled by   0.396
 Iteration  1 RMS(Cart)=  0.06299467 RMS(Int)=  0.00900499
 Iteration  2 RMS(Cart)=  0.00857513 RMS(Int)=  0.00008886
 Iteration  3 RMS(Cart)=  0.00007211 RMS(Int)=  0.00000000
 Iteration  4 RMS(Cart)=  0.00000000 RMS(Int)=  0.00000000
 Variable       Old X    -DE/DX   Delta X   Delta X   Delta X     New X
                                 (Linear)    (Quad)   (Total)
    R1        2.26093  -0.00174   0.00000  -0.00027  -0.00027   2.26066
    R2        5.05527   0.00259   0.00000   0.18913   0.18913   5.24441
    R3        1.81702  -0.00042   0.00000  -0.00053  -0.00053   1.81649
    R4        1.81664  -0.00132   0.00000  -0.00034  -0.00034   1.81630
    A1        1.82327  -0.00040   0.00000  -0.01334  -0.01334   1.80993
    A2        2.77150  -0.00100   0.00000  -0.22103  -0.22103   2.55047
    A3        4.36874   0.00846   0.00000   0.00567   0.00567   4.37441
    A4        1.55223   0.00525   0.00000  -0.06805  -0.06805   1.48418
    A5        3.30873  -0.00021   0.00000  -0.02314  -0.02314   3.28560
         Item               Value     Threshold  Converged?
 Maximum Force            0.008461     0.000450     NO 
 RMS     Force            0.003528     0.000300     NO 
 Maximum Displacement     0.118888     0.001800     NO 
 RMS     Displacement     0.068715     0.001200     NO 
 Predicted change in Energy=-5.240575D-04
 GradGradGradGradGradGradGradGradGradGradGradGradGradGradGradGradGradGrad

                          Input orientation:                          
 ---------------------------------------------------------------------
 Center     Atomic      Atomic             Coordinates (Angstroms)
 Number     Number       Type             X           Y           Z
 ---------------------------------------------------------------------
      1          8           0       -1.297875   -0.556834   -0.185101
      2          8           0       -1.074574    0.564844    0.165726
      3          1           0        1.681208    0.791421   -0.071296
      4          8           0        1.656199   -0.152139   -0.253125
      5          1           0        1.948559   -0.613706    0.537623
 ---------------------------------------------------------------------
                    Distance matrix (angstroms):
                    1          2          3          4          5
     1  O    0.000000
     2  O    1.196288   0.000000
     3  H    3.271953   2.775220   0.000000
     4  O    2.982442   2.854229   0.961246   0.000000
     5  H    3.326395   3.265979   1.554555   0.961146   0.000000
 Stoichiometry    H2O3
 Framework group  C1[X(H2O3)]
 Deg. of freedom     9
 Full point group                 C1      NOp   1
 Largest Abelian subgroup         C1      NOp   1
 Largest concise Abelian subgroup C1      NOp   1
                         Standard orientation:                         
 ---------------------------------------------------------------------
 Center     Atomic      Atomic             Coordinates (Angstroms)
 Number     Number       Type             X           Y           Z
 ---------------------------------------------------------------------
      1          8           0       -1.198064   -0.573626   -0.028677
      2          8           0       -1.016963    0.606859    0.040340
      3          1           0        1.740027    0.861158   -0.149882
      4          8           0        1.745573   -0.098365   -0.092624
      5          1           0        2.015607   -0.340105    0.797570
 ---------------------------------------------------------------------
 Rotational constants (GHZ):     38.9654685      5.2679849      4.7097045
 Standard basis: 6-31+G(d,p) (6D, 7F)
 There are    67 symmetry adapted basis functions of A   symmetry.
 Integral buffers will be    262144 words long.
 Raffenetti 2 integral format.
 Two-electron integral symmetry is turned on.
    67 basis functions,   110 primitive gaussians,    67 cartesian basis functions
    13 alpha electrons       13 beta electrons
       nuclear repulsion energy        66.0688374957 Hartrees.
 NAtoms=    5 NActive=    5 NUniq=    5 SFac= 7.50D-01 NAtFMM=   80 NAOKFM=F Big=F
 One-electron integrals computed using PRISM.
 NBasis=    67 RedAO= T  NBF=    67
 NBsUse=    67 1.00D-06 NBFU=    67
 Initial guess read from the read-write file.
 B after Tr=     0.000000    0.000000    0.000000
         Rot=    1.000000    0.000000    0.000000    0.000000 Ang=   0.00 deg.
 Initial guess orbital symmetries:
       Occupied  (A) (A) (A) (A) (A) (A) (A) (A) (A) (A) (A) (A)
                 (A)
       Virtual   (A) (A) (A) (A) (A) (A) (A) (A) (A) (A) (A) (A)
                 (A) (A) (A) (A) (A) (A) (A) (A) (A) (A) (A) (A)
                 (A) (A) (A) (A) (A) (A) (A) (A) (A) (A) (A) (A)
                 (A) (A) (A) (A) (A) (A) (A) (A) (A) (A) (A) (A)
                 (A) (A) (A) (A) (A) (A)
 Harris functional with IExCor= 1009 diagonalized for initial guess.
 ExpMin= 8.45D-02 ExpMax= 5.48D+03 ExpMxC= 8.25D+02 IAcc=2 IRadAn=         0 AccDes= 0.00D+00
 HarFok:  IExCor= 1009 AccDes= 0.00D+00 IRadAn=         0 IDoV= 1
 ScaDFX=  1.000000  1.000000  1.000000  1.000000
 FoFCou: FMM=F IPFlag=           0 FMFlag=      100000 FMFlg1=           0
         NFxFlg=           0 DoJE=T BraDBF=F KetDBF=T FulRan=T
         Omega=  0.000000  0.000000  1.000000  0.000000  0.000000 ICntrl=     500 IOpCl=  0
         NMat0=    1 NMatS0=    1 NMatT0=    0 NMatD0=    1 NMtDS0=    0 NMtDT0=    0
         I1Cent=           4 NGrid=           0.
 Petite list used in FoFCou.
 Requested convergence on RMS density matrix=1.00D-08 within 128 cycles.
 Requested convergence on MAX density matrix=1.00D-06.
 Requested convergence on             energy=1.00D-06.
 No special actions if energy rises.
 Keep R1 ints in memory in canonical form, NReq=3550937.
 Integral accuracy reduced to 1.0D-05 until final iterations.
 Initial convergence to 1.0D-05 achieved.  Increase integral accuracy.
 SCF Done:  E(RM062X) =  -226.599687448     A.U. after   29 cycles
             Convg  =    0.7341D-08             -V/T =  2.0081
 Calling FoFJK, ICntrl=      2127 FMM=F ISym2X=0 I1Cent= 0 IOpClX= 0 NMat=1 NMatS=1 NMatT=0.
 ***** Axes restored to original set *****
 -------------------------------------------------------------------
 Center     Atomic                   Forces (Hartrees/Bohr)
 Number     Number              X              Y              Z
 -------------------------------------------------------------------
      1        8           0.000455892    0.001454040    0.000235036
      2        8          -0.002451866   -0.000464996   -0.000058502
      3        1           0.000178724   -0.000799811    0.002215626
      4        8           0.000812888   -0.002525384   -0.003024572
      5        1           0.001004362    0.002336152    0.000632412
 -------------------------------------------------------------------
 Cartesian Forces:  Max     0.003024572 RMS     0.001575689

 GradGradGradGradGradGradGradGradGradGradGradGradGradGradGradGradGradGrad
 Berny optimization.
 Internal  Forces:  Max     0.004546814 RMS     0.002119702
 Search for a saddle point.
 Step number   6 out of a maximum of  100
 All quantities printed in internal units (Hartrees-Bohrs-Radians)
 Swaping is turned off.
 Update second derivatives using D2CorX and points    4    5    6
 The second derivative matrix:
                          R1        R2        R3        R4        A1
           R1           0.78638
           R2          -0.01316  -0.02607
           R3          -0.00865   0.00593   0.46672
           R4          -0.00279   0.02767   0.00334   0.58054
           A1           0.00142   0.05497   0.00840   0.00896   0.07164
           A2          -0.00094  -0.08220   0.00408   0.02365   0.00980
           A3           0.00476  -0.02285  -0.02896  -0.02331   0.00541
           A4          -0.03101   0.20610   0.01829   0.01071   0.10552
           A5          -0.00391  -0.10181  -0.03081  -0.00656   0.00029
                          A2        A3        A4        A5
           A2          -0.07543
           A3          -0.03599   0.11622
           A4           0.04718   0.00111   0.35326
           A5          -0.11602  -0.03723   0.10386  -0.04586
     Eigenvalues ---   -0.32070  -0.00168   0.02869   0.07195   0.12400
     Eigenvalues ---    0.45735   0.48893   0.58841   0.79047
 Eigenvectors required to have negative eigenvalues:
                          A5        R2        A2        A4        A3
   1                    0.55782   0.55718   0.52663  -0.29143   0.12164
                          R3        R4        A1        R1
   1                    0.02639  -0.02021  -0.01503   0.00053
 RFO step:  Lambda0=1.573749912D-06 Lambda=-1.89770604D-03.
 Linear search not attempted -- option 19 set.
 Maximum step size (   0.300) exceeded in Quadratic search.
    -- Step size scaled by   0.398
 Iteration  1 RMS(Cart)=  0.06936631 RMS(Int)=  0.00872119
 Iteration  2 RMS(Cart)=  0.00915565 RMS(Int)=  0.00009183
 Iteration  3 RMS(Cart)=  0.00007600 RMS(Int)=  0.00000000
 Iteration  4 RMS(Cart)=  0.00000000 RMS(Int)=  0.00000000
 Variable       Old X    -DE/DX   Delta X   Delta X   Delta X     New X
                                 (Linear)    (Quad)   (Total)
    R1        2.26066  -0.00146   0.00000  -0.00028  -0.00028   2.26037
    R2        5.24441   0.00189   0.00000   0.19524   0.19524   5.43965
    R3        1.81649   0.00042   0.00000   0.00004   0.00004   1.81653
    R4        1.81630  -0.00031   0.00000  -0.00028  -0.00028   1.81602
    A1        1.80993  -0.00051   0.00000  -0.02331  -0.02331   1.78662
    A2        2.55047  -0.00126   0.00000  -0.21456  -0.21456   2.33591
    A3        4.37441   0.00343   0.00000  -0.02099  -0.02099   4.35342
    A4        1.48418   0.00455   0.00000  -0.06630  -0.06630   1.41788
    A5        3.28560  -0.00039   0.00000  -0.02157  -0.02157   3.26402
         Item               Value     Threshold  Converged?
 Maximum Force            0.004547     0.000450     NO 
 RMS     Force            0.002120     0.000300     NO 
 Maximum Displacement     0.138789     0.001800     NO 
 RMS     Displacement     0.075718     0.001200     NO 
 Predicted change in Energy=-3.399121D-04
 GradGradGradGradGradGradGradGradGradGradGradGradGradGradGradGradGradGrad

                          Input orientation:                          
 ---------------------------------------------------------------------
 Center     Atomic      Atomic             Coordinates (Angstroms)
 Number     Number       Type             X           Y           Z
 ---------------------------------------------------------------------
      1          8           0       -1.334261   -0.558340   -0.182822
      2          8           0       -1.136059    0.574034    0.147619
      3          1           0        1.727339    0.784308   -0.059055
      4          8           0        1.634496   -0.156564   -0.232749
      5          1           0        2.022003   -0.609851    0.520834
 ---------------------------------------------------------------------
                    Distance matrix (angstroms):
                    1          2          3          4          5
     1  O    0.000000
     2  O    1.196138   0.000000
     3  H    3.345357   2.878537   0.000000
     4  O    2.996237   2.890404   0.961265   0.000000
     5  H    3.429620   3.393263   1.538433   0.960998   0.000000
 Stoichiometry    H2O3
 Framework group  C1[X(H2O3)]
 Deg. of freedom     9
 Full point group                 C1      NOp   1
 Largest Abelian subgroup         C1      NOp   1
 Largest concise Abelian subgroup C1      NOp   1
                         Standard orientation:                         
 ---------------------------------------------------------------------
 Center     Atomic      Atomic             Coordinates (Angstroms)
 Number     Number       Type             X           Y           Z
 ---------------------------------------------------------------------
      1          8           0       -1.201243   -0.577945   -0.025999
      2          8           0       -1.046649    0.606338    0.039729
      3          1           0        1.814801    0.865202   -0.136531
      4          8           0        1.754789   -0.093115   -0.091187
      5          1           0        2.130024   -0.347425    0.756187
 ---------------------------------------------------------------------
 Rotational constants (GHZ):     38.9950600      5.1466670      4.6067008
 Standard basis: 6-31+G(d,p) (6D, 7F)
 There are    67 symmetry adapted basis functions of A   symmetry.
 Integral buffers will be    262144 words long.
 Raffenetti 2 integral format.
 Two-electron integral symmetry is turned on.
    67 basis functions,   110 primitive gaussians,    67 cartesian basis functions
    13 alpha electrons       13 beta electrons
       nuclear repulsion energy        65.7056763926 Hartrees.
 NAtoms=    5 NActive=    5 NUniq=    5 SFac= 7.50D-01 NAtFMM=   80 NAOKFM=F Big=F
 One-electron integrals computed using PRISM.
 NBasis=    67 RedAO= T  NBF=    67
 NBsUse=    67 1.00D-06 NBFU=    67
 Initial guess read from the read-write file.
 B after Tr=     0.000000    0.000000    0.000000
         Rot=    1.000000    0.000000    0.000000    0.000000 Ang=   0.00 deg.
 Initial guess orbital symmetries:
       Occupied  (A) (A) (A) (A) (A) (A) (A) (A) (A) (A) (A) (A)
                 (A)
       Virtual   (A) (A) (A) (A) (A) (A) (A) (A) (A) (A) (A) (A)
                 (A) (A) (A) (A) (A) (A) (A) (A) (A) (A) (A) (A)
                 (A) (A) (A) (A) (A) (A) (A) (A) (A) (A) (A) (A)
                 (A) (A) (A) (A) (A) (A) (A) (A) (A) (A) (A) (A)
                 (A) (A) (A) (A) (A) (A)
 Harris functional with IExCor= 1009 diagonalized for initial guess.
 ExpMin= 8.45D-02 ExpMax= 5.48D+03 ExpMxC= 8.25D+02 IAcc=2 IRadAn=         0 AccDes= 0.00D+00
 HarFok:  IExCor= 1009 AccDes= 0.00D+00 IRadAn=         0 IDoV= 1
 ScaDFX=  1.000000  1.000000  1.000000  1.000000
 FoFCou: FMM=F IPFlag=           0 FMFlag=      100000 FMFlg1=           0
         NFxFlg=           0 DoJE=T BraDBF=F KetDBF=T FulRan=T
         Omega=  0.000000  0.000000  1.000000  0.000000  0.000000 ICntrl=     500 IOpCl=  0
         NMat0=    1 NMatS0=    1 NMatT0=    0 NMatD0=    1 NMtDS0=    0 NMtDT0=    0
         I1Cent=           4 NGrid=           0.
 Petite list used in FoFCou.
 Requested convergence on RMS density matrix=1.00D-08 within 128 cycles.
 Requested convergence on MAX density matrix=1.00D-06.
 Requested convergence on             energy=1.00D-06.
 No special actions if energy rises.
 Keep R1 ints in memory in canonical form, NReq=3551229.
 Integral accuracy reduced to 1.0D-05 until final iterations.
 Initial convergence to 1.0D-05 achieved.  Increase integral accuracy.
 SCF Done:  E(RM062X) =  -226.599969596     A.U. after   25 cycles
             Convg  =    0.2891D-08             -V/T =  2.0081
 Calling FoFJK, ICntrl=      2127 FMM=F ISym2X=0 I1Cent= 0 IOpClX= 0 NMat=1 NMatS=1 NMatT=0.
 ***** Axes restored to original set *****
 -------------------------------------------------------------------
 Center     Atomic                   Forces (Hartrees/Bohr)
 Number     Number              X              Y              Z
 -------------------------------------------------------------------
      1        8           0.000295065    0.000972091    0.000234719
      2        8          -0.001691920   -0.000186055   -0.000161525
      3        1          -0.000358444    0.000443170    0.000301649
      4        8           0.000769468   -0.001185170   -0.000650599
      5        1           0.000985831   -0.000044037    0.000275755
 -------------------------------------------------------------------
 Cartesian Forces:  Max     0.001691920 RMS     0.000725540

 GradGradGradGradGradGradGradGradGradGradGradGradGradGradGradGradGradGrad
 Berny optimization.
 Internal  Forces:  Max     0.004309877 RMS     0.001645967
 Search for a saddle point.
 Step number   7 out of a maximum of  100
 All quantities printed in internal units (Hartrees-Bohrs-Radians)
 Swaping is turned off.
 Update second derivatives using D2CorX and points    5    6    7
 The second derivative matrix:
                          R1        R2        R3        R4        A1
           R1           0.78639
           R2          -0.01281  -0.02560
           R3          -0.00868   0.00421   0.46687
           R4          -0.00282   0.02596   0.00349   0.58069
           A1           0.00138   0.05486   0.00859   0.00915   0.07166
           A2          -0.00133  -0.08263   0.00600   0.02554   0.00990
           A3           0.00481  -0.01753  -0.02929  -0.02364   0.00483
           A4          -0.03119   0.20244   0.01918   0.01160   0.10594
           A5          -0.00395  -0.10139  -0.03066  -0.00640   0.00025
                          A2        A3        A4        A5
           A2          -0.07505
           A3          -0.04191   0.11685
           A4           0.05121  -0.00139   0.35632
           A5          -0.11650  -0.03774   0.10403  -0.04595
     Eigenvalues ---   -0.32054  -0.00057   0.02860   0.07206   0.12653
     Eigenvalues ---    0.45735   0.48944   0.58880   0.79050
 Eigenvectors required to have negative eigenvalues:
                          A5        R2        A2        A4        A3
   1                    0.55855   0.55115   0.53360  -0.28893   0.12134
                          R3        R4        A1        R1
   1                    0.02654  -0.02009  -0.01449   0.00052
 RFO step:  Lambda0=5.726373794D-06 Lambda=-9.90609603D-04.
 Linear search not attempted -- option 19 set.
 Maximum step size (   0.300) exceeded in Quadratic search.
    -- Step size scaled by   0.300
 Iteration  1 RMS(Cart)=  0.08253644 RMS(Int)=  0.00850033
 Iteration  2 RMS(Cart)=  0.00915762 RMS(Int)=  0.00007286
 Iteration  3 RMS(Cart)=  0.00005815 RMS(Int)=  0.00000000
 Iteration  4 RMS(Cart)=  0.00000000 RMS(Int)=  0.00000000
 Variable       Old X    -DE/DX   Delta X   Delta X   Delta X     New X
                                 (Linear)    (Quad)   (Total)
    R1        2.26037  -0.00104   0.00000   0.00007   0.00007   2.26045
    R2        5.43965   0.00131   0.00000   0.19797   0.19797   5.63761
    R3        1.81653   0.00106   0.00000   0.00020   0.00020   1.81672
    R4        1.81602   0.00062   0.00000  -0.00006  -0.00006   1.81596
    A1        1.78662  -0.00029   0.00000  -0.02112  -0.02112   1.76549
    A2        2.33591  -0.00099   0.00000  -0.20697  -0.20697   2.12895
    A3        4.35342  -0.00048   0.00000  -0.05142  -0.05142   4.30200
    A4        1.41788   0.00431   0.00000  -0.06712  -0.06712   1.35076
    A5        3.26402  -0.00048   0.00000  -0.01947  -0.01947   3.24456
         Item               Value     Threshold  Converged?
 Maximum Force            0.004310     0.000450     NO 
 RMS     Force            0.001646     0.000300     NO 
 Maximum Displacement     0.165685     0.001800     NO 
 RMS     Displacement     0.088354     0.001200     NO 
 Predicted change in Energy=-2.348514D-04
 GradGradGradGradGradGradGradGradGradGradGradGradGradGradGradGradGradGrad

                          Input orientation:                          
 ---------------------------------------------------------------------
 Center     Atomic      Atomic             Coordinates (Angstroms)
 Number     Number       Type             X           Y           Z
 ---------------------------------------------------------------------
      1          8           0       -1.377073   -0.559591   -0.176263
      2          8           0       -1.201170    0.585866    0.120095
      3          1           0        1.771655    0.774441   -0.043653
      4          8           0        1.610426   -0.160668   -0.197946
      5          1           0        2.109680   -0.606461    0.491594
 ---------------------------------------------------------------------
                    Distance matrix (angstroms):
                    1          2          3          4          5
     1  O    0.000000
     2  O    1.196178   0.000000
     3  H    3.422238   2.983297   0.000000
     4  O    3.014093   2.926351   0.961369   0.000000
     5  H    3.550447   3.538556   1.519093   0.960964   0.000000
 Stoichiometry    H2O3
 Framework group  C1[X(H2O3)]
 Deg. of freedom     9
 Full point group                 C1      NOp   1
 Largest Abelian subgroup         C1      NOp   1
 Largest concise Abelian subgroup C1      NOp   1
                         Standard orientation:                         
 ---------------------------------------------------------------------
 Center     Atomic      Atomic             Coordinates (Angstroms)
 Number     Number       Type             X           Y           Z
 ---------------------------------------------------------------------
      1          8           0       -1.207889   -0.581754   -0.023303
      2          8           0       -1.076130    0.605522    0.038787
      3          1           0        1.891472    0.866048   -0.120976
      4          8           0        1.764536   -0.086263   -0.086049
      5          1           0        2.264395   -0.366091    0.685500
 ---------------------------------------------------------------------
 Rotational constants (GHZ):     39.2084437      5.0173386      4.4960165
 Standard basis: 6-31+G(d,p) (6D, 7F)
 There are    67 symmetry adapted basis functions of A   symmetry.
 Integral buffers will be    262144 words long.
 Raffenetti 2 integral format.
 Two-electron integral symmetry is turned on.
    67 basis functions,   110 primitive gaussians,    67 cartesian basis functions
    13 alpha electrons       13 beta electrons
       nuclear repulsion energy        65.3246040843 Hartrees.
 NAtoms=    5 NActive=    5 NUniq=    5 SFac= 7.50D-01 NAtFMM=   80 NAOKFM=F Big=F
 One-electron integrals computed using PRISM.
 NBasis=    67 RedAO= T  NBF=    67
 NBsUse=    67 1.00D-06 NBFU=    67
 Initial guess read from the read-write file.
 B after Tr=     0.000000    0.000000    0.000000
         Rot=    1.000000    0.000000    0.000000    0.000000 Ang=   0.00 deg.
 Initial guess orbital symmetries:
       Occupied  (A) (A) (A) (A) (A) (A) (A) (A) (A) (A) (A) (A)
                 (A)
       Virtual   (A) (A) (A) (A) (A) (A) (A) (A) (A) (A) (A) (A)
                 (A) (A) (A) (A) (A) (A) (A) (A) (A) (A) (A) (A)
                 (A) (A) (A) (A) (A) (A) (A) (A) (A) (A) (A) (A)
                 (A) (A) (A) (A) (A) (A) (A) (A) (A) (A) (A) (A)
                 (A) (A) (A) (A) (A) (A)
 Harris functional with IExCor= 1009 diagonalized for initial guess.
 ExpMin= 8.45D-02 ExpMax= 5.48D+03 ExpMxC= 8.25D+02 IAcc=2 IRadAn=         0 AccDes= 0.00D+00
 HarFok:  IExCor= 1009 AccDes= 0.00D+00 IRadAn=         0 IDoV= 1
 ScaDFX=  1.000000  1.000000  1.000000  1.000000
 FoFCou: FMM=F IPFlag=           0 FMFlag=      100000 FMFlg1=           0
         NFxFlg=           0 DoJE=T BraDBF=F KetDBF=T FulRan=T
         Omega=  0.000000  0.000000  1.000000  0.000000  0.000000 ICntrl=     500 IOpCl=  0
         NMat0=    1 NMatS0=    1 NMatT0=    0 NMatD0=    1 NMtDS0=    0 NMtDT0=    0
         I1Cent=           4 NGrid=           0.
 Petite list used in FoFCou.
 Requested convergence on RMS density matrix=1.00D-08 within 128 cycles.
 Requested convergence on MAX density matrix=1.00D-06.
 Requested convergence on             energy=1.00D-06.
 No special actions if energy rises.
 Keep R1 ints in memory in canonical form, NReq=3551229.
 Integral accuracy reduced to 1.0D-05 until final iterations.
 Initial convergence to 1.0D-05 achieved.  Increase integral accuracy.
 SCF Done:  E(RM062X) =  -226.600110144     A.U. after   29 cycles
             Convg  =    0.1101D-08             -V/T =  2.0081
 Calling FoFJK, ICntrl=      2127 FMM=F ISym2X=0 I1Cent= 0 IOpClX= 0 NMat=1 NMatS=1 NMatT=0.
 ***** Axes restored to original set *****
 -------------------------------------------------------------------
 Center     Atomic                   Forces (Hartrees/Bohr)
 Number     Number              X              Y              Z
 -------------------------------------------------------------------
      1        8           0.000370288    0.000779439    0.000289806
      2        8          -0.001221715   -0.000180312   -0.000295092
      3        1          -0.001651393    0.001877035   -0.001712990
      4        8           0.001953345    0.000691496    0.001678681
      5        1           0.000549476   -0.003167659    0.000039594
 -------------------------------------------------------------------
 Cartesian Forces:  Max     0.003167659 RMS     0.001392234

 GradGradGradGradGradGradGradGradGradGradGradGradGradGradGradGradGradGrad
 Berny optimization.
 Internal  Forces:  Max     0.004498532 RMS     0.002213425
 Search for a saddle point.
 Step number   8 out of a maximum of  100
 All quantities printed in internal units (Hartrees-Bohrs-Radians)
 Swaping is turned off.
 Update second derivatives using D2CorX and points    6    7    8
 The second derivative matrix:
                          R1        R2        R3        R4        A1
           R1           0.78640
           R2          -0.01225  -0.02567
           R3          -0.00874   0.00176   0.46714
           R4          -0.00289   0.02323   0.00379   0.58103
           A1           0.00133   0.05530   0.00881   0.00939   0.07157
           A2          -0.00199  -0.08521   0.00888   0.02877   0.00968
           A3           0.00488  -0.01001  -0.02958  -0.02397   0.00405
           A4          -0.03146   0.19940   0.02035   0.01291   0.10607
           A5          -0.00400  -0.10138  -0.03041  -0.00613   0.00021
                          A2        A3        A4        A5
           A2          -0.06921
           A3          -0.05019   0.11608
           A4           0.05570  -0.00431   0.35883
           A5          -0.11624  -0.03850   0.10434  -0.04595
     Eigenvalues ---   -0.32053   0.00186   0.02861   0.07237   0.13048
     Eigenvalues ---    0.45740   0.48992   0.58956   0.79056
 Eigenvectors required to have negative eigenvalues:
                          A5        R2        A2        A4        A3
   1                    0.55866   0.54998   0.53494  -0.28846   0.12135
                          R3        R4        A1        R1
   1                    0.02658  -0.02005  -0.01441   0.00051
 RFO step:  Lambda0=3.943362395D-06 Lambda=-2.47082521D-04.
 Linear search not attempted -- option 19 set.
 Iteration  1 RMS(Cart)=  0.04465615 RMS(Int)=  0.00177362
 Iteration  2 RMS(Cart)=  0.00149056 RMS(Int)=  0.00000127
 Iteration  3 RMS(Cart)=  0.00000118 RMS(Int)=  0.00000000
 Iteration  4 RMS(Cart)=  0.00000000 RMS(Int)=  0.00000000
 Variable       Old X    -DE/DX   Delta X   Delta X   Delta X     New X
                                 (Linear)    (Quad)   (Total)
    R1        2.26045  -0.00100   0.00000   0.00001   0.00001   2.26045
    R2        5.63761   0.00082   0.00000   0.07108   0.07108   5.70870
    R3        1.81672   0.00189   0.00000   0.00120   0.00120   1.81792
[...]
 NBsUse=    67 1.00D-06 NBFU=    67
 Initial guess read from the read-write file.
 B after Tr=     0.000000    0.000000    0.000000
         Rot=    1.000000    0.000000    0.000000    0.000000 Ang=   0.00 deg.
 Initial guess orbital symmetries:
       Occupied  (A) (A) (A) (A) (A) (A) (A) (A) (A) (A) (A) (A)
                 (A)
       Virtual   (A) (A) (A) (A) (A) (A) (A) (A) (A) (A) (A) (A)
                 (A) (A) (A) (A) (A) (A) (A) (A) (A) (A) (A) (A)
                 (A) (A) (A) (A) (A) (A) (A) (A) (A) (A) (A) (A)
                 (A) (A) (A) (A) (A) (A) (A) (A) (A) (A) (A) (A)
                 (A) (A) (A) (A) (A) (A)
 Harris functional with IExCor= 1009 diagonalized for initial guess.
 ExpMin= 8.45D-02 ExpMax= 5.48D+03 ExpMxC= 8.25D+02 IAcc=2 IRadAn=         0 AccDes= 0.00D+00
 HarFok:  IExCor= 1009 AccDes= 0.00D+00 IRadAn=         0 IDoV= 1
 ScaDFX=  1.000000  1.000000  1.000000  1.000000
 FoFCou: FMM=F IPFlag=           0 FMFlag=      100000 FMFlg1=           0
         NFxFlg=           0 DoJE=T BraDBF=F KetDBF=T FulRan=T
         Omega=  0.000000  0.000000  1.000000  0.000000  0.000000 ICntrl=     500 IOpCl=  0
         NMat0=    1 NMatS0=    1 NMatT0=    0 NMatD0=    1 NMtDS0=    0 NMtDT0=    0
         I1Cent=           4 NGrid=           0.
 Petite list used in FoFCou.
 Requested convergence on RMS density matrix=1.00D-08 within 128 cycles.
 Requested convergence on MAX density matrix=1.00D-06.
 Requested convergence on             energy=1.00D-06.
 No special actions if energy rises.
 Keep R1 ints in memory in canonical form, NReq=3551380.
 Integral accuracy reduced to 1.0D-05 until final iterations.
 Initial convergence to 1.0D-05 achieved.  Increase integral accuracy.
 SCF Done:  E(RM062X) =  -226.600647871     A.U. after   25 cycles
             Convg  =    0.1918D-09             -V/T =  2.0081
 Calling FoFJK, ICntrl=      2127 FMM=F ISym2X=0 I1Cent= 0 IOpClX= 0 NMat=1 NMatS=1 NMatT=0.
 ***** Axes restored to original set *****
 -------------------------------------------------------------------
 Center     Atomic                   Forces (Hartrees/Bohr)
 Number     Number              X              Y              Z
 -------------------------------------------------------------------
      1        8           0.000119542    0.000001461    0.000286027
      2        8           0.000237796   -0.000028670   -0.000290436
      3        1           0.000335356   -0.000322864    0.000354739
      4        8          -0.001037062   -0.000041894   -0.000156990
      5        1           0.000344367    0.000391967   -0.000193341
 -------------------------------------------------------------------
 Cartesian Forces:  Max     0.001037062 RMS     0.000364406

 GradGradGradGradGradGradGradGradGradGradGradGradGradGradGradGradGradGrad
 Berny optimization.
 Internal  Forces:  Max     0.000990967 RMS     0.000452362
 Search for a saddle point.
 Step number  40 out of a maximum of  100
 All quantities printed in internal units (Hartrees-Bohrs-Radians)
 Swaping is turned off.
 Update second derivatives using D2CorX and points   31   32   33   34   35
                                                     36   37   38   39   40
 The second derivative matrix:
                          R1        R2        R3        R4        A1
           R1           0.78599
           R2          -0.01306   0.07947
           R3          -0.00860   0.00147   0.46704
           R4          -0.00262   0.00457   0.00208   0.57955
           A1          -0.00061   0.04037  -0.00338   0.00116   0.06801
           A2          -0.00081   0.00218   0.02148   0.02891  -0.00391
           A3          -0.00427   0.02064   0.00168   0.00264   0.00839
           A4          -0.02454   0.13720   0.00197   0.00761   0.06237
           A5          -0.01356   0.07114   0.00268   0.00744   0.03317
                          A2        A3        A4        A5
           A2           0.10278
           A3           0.00623   0.00639
           A4           0.00277   0.03553   0.23337
           A5           0.00034   0.01986   0.12330   0.06663
     Eigenvalues ---   -0.00135  -0.00001   0.00242   0.04791   0.10049
     Eigenvalues ---    0.40090   0.46803   0.58206   0.78877
 Eigenvectors required to have negative eigenvalues:
                          R2        A4        A5        A3        A1
   1                    0.76525  -0.55884   0.28246  -0.13610  -0.06127
                          A2        R3        R4        R1
   1                    0.00465  -0.00183  -0.00180  -0.00067
 RFO step:  Lambda0=9.954344403D-06 Lambda=-8.79841906D-05.
 Linear search not attempted -- option 19 set.
 Maximum step size (   0.300) exceeded in Quadratic search.
    -- Step size scaled by   0.353
 Iteration  1 RMS(Cart)=  0.05428335 RMS(Int)=  0.01187349
 Iteration  2 RMS(Cart)=  0.00950014 RMS(Int)=  0.00012644
 Iteration  3 RMS(Cart)=  0.00011460 RMS(Int)=  0.00000001
 Iteration  4 RMS(Cart)=  0.00000001 RMS(Int)=  0.00000000
 Variable       Old X    -DE/DX   Delta X   Delta X   Delta X     New X
                                 (Linear)    (Quad)   (Total)
    R1        2.25970  -0.00003   0.00000  -0.00016  -0.00016   2.25954
    R2        6.06525  -0.00037   0.00000   0.11542   0.11542   6.18067
    R3        1.81797  -0.00018   0.00000   0.00045   0.00045   1.81842
    R4        1.81716   0.00005   0.00000   0.00124   0.00124   1.81840
    A1        1.67521  -0.00026   0.00000  -0.00525  -0.00525   1.66996
    A2        1.83730  -0.00099   0.00000  -0.01945  -0.01945   1.81784
    A3        3.21600  -0.00020   0.00000   0.23341   0.23341   3.44942
    A4        1.25250  -0.00051   0.00000  -0.02581  -0.02581   1.22669
    A5        3.50981  -0.00057   0.00000  -0.14533  -0.14533   3.36447
         Item               Value     Threshold  Converged?
 Maximum Force            0.000991     0.000450     NO 
 RMS     Force            0.000452     0.000300     NO 
 Maximum Displacement     0.105099     0.001800     NO 
 RMS     Displacement     0.055752     0.001200     NO 
 Predicted change in Energy=-2.660669D-05
 GradGradGradGradGradGradGradGradGradGradGradGradGradGradGradGradGradGrad

                          Input orientation:                          
 ---------------------------------------------------------------------
 Center     Atomic      Atomic             Coordinates (Angstroms)
 Number     Number       Type             X           Y           Z
 ---------------------------------------------------------------------
      1          8           0       -1.475912   -0.559329   -0.119392
      2          8           0       -1.405077    0.630332   -0.022532
      3          1           0        1.862979    0.761095   -0.021414
      4          8           0        1.568402   -0.150319    0.070788
      5          1           0        2.363125   -0.648191    0.286377
 ---------------------------------------------------------------------
                    Distance matrix (angstroms):
                    1          2          3          4          5
     1  O    0.000000
     2  O    1.195698   0.000000
     3  H    3.591840   3.270672   0.000000
     4  O    3.077549   3.075663   0.962264   0.000000
     5  H    3.861444   3.991164   1.526751   0.962257   0.000000
 Stoichiometry    H2O3
 Framework group  C1[X(H2O3)]
 Deg. of freedom     9
 Full point group                 C1      NOp   1
 Largest Abelian subgroup         C1      NOp   1
 Largest concise Abelian subgroup C1      NOp   1
                         Standard orientation:                         
 ---------------------------------------------------------------------
 Center     Atomic      Atomic             Coordinates (Angstroms)
 Number     Number       Type             X           Y           Z
 ---------------------------------------------------------------------
      1          8           0       -1.211080   -0.599545   -0.020695
      2          8           0       -1.192736    0.595116    0.025584
      3          1           0        2.060990    0.876118   -0.152177
      4          8           0        1.815752   -0.043260   -0.008811
      5          1           0        2.643529   -0.494611    0.183557
 ---------------------------------------------------------------------
 Rotational constants (GHZ):     40.3201667      4.5980084      4.1321711
 Standard basis: 6-31+G(d,p) (6D, 7F)
 There are    67 symmetry adapted basis functions of A   symmetry.
 Integral buffers will be    262144 words long.
 Raffenetti 2 integral format.
 Two-electron integral symmetry is turned on.
    67 basis functions,   110 primitive gaussians,    67 cartesian basis functions
    13 alpha electrons       13 beta electrons
       nuclear repulsion energy        64.1158825901 Hartrees.
 NAtoms=    5 NActive=    5 NUniq=    5 SFac= 7.50D-01 NAtFMM=   80 NAOKFM=F Big=F
 One-electron integrals computed using PRISM.
 NBasis=    67 RedAO= T  NBF=    67
 NBsUse=    67 1.00D-06 NBFU=    67
 Initial guess read from the read-write file.
 B after Tr=     0.000000    0.000000    0.000000
         Rot=    1.000000    0.000000    0.000000    0.000000 Ang=   0.00 deg.
 Initial guess orbital symmetries:
       Occupied  (A) (A) (A) (A) (A) (A) (A) (A) (A) (A) (A) (A)
                 (A)
       Virtual   (A) (A) (A) (A) (A) (A) (A) (A) (A) (A) (A) (A)
                 (A) (A) (A) (A) (A) (A) (A) (A) (A) (A) (A) (A)
                 (A) (A) (A) (A) (A) (A) (A) (A) (A) (A) (A) (A)
                 (A) (A) (A) (A) (A) (A) (A) (A) (A) (A) (A) (A)
                 (A) (A) (A) (A) (A) (A)
 Harris functional with IExCor= 1009 diagonalized for initial guess.
 ExpMin= 8.45D-02 ExpMax= 5.48D+03 ExpMxC= 8.25D+02 IAcc=2 IRadAn=         0 AccDes= 0.00D+00
 HarFok:  IExCor= 1009 AccDes= 0.00D+00 IRadAn=         0 IDoV= 1
 ScaDFX=  1.000000  1.000000  1.000000  1.000000
 FoFCou: FMM=F IPFlag=           0 FMFlag=      100000 FMFlg1=           0
         NFxFlg=           0 DoJE=T BraDBF=F KetDBF=T FulRan=T
         Omega=  0.000000  0.000000  1.000000  0.000000  0.000000 ICntrl=     500 IOpCl=  0
         NMat0=    1 NMatS0=    1 NMatT0=    0 NMatD0=    1 NMtDS0=    0 NMtDT0=    0
         I1Cent=           4 NGrid=           0.
 Petite list used in FoFCou.
 Requested convergence on RMS density matrix=1.00D-08 within 128 cycles.
 Requested convergence on MAX density matrix=1.00D-06.
 Requested convergence on             energy=1.00D-06.
 No special actions if energy rises.
 Keep R1 ints in memory in canonical form, NReq=3551380.
 Integral accuracy reduced to 1.0D-05 until final iterations.
 Initial convergence to 1.0D-05 achieved.  Increase integral accuracy.
 SCF Done:  E(RM062X) =  -226.600615449     A.U. after   97 cycles
             Convg  =    0.2891D-08             -V/T =  2.0081
 Calling FoFJK, ICntrl=      2127 FMM=F ISym2X=0 I1Cent= 0 IOpClX= 0 NMat=1 NMatS=1 NMatT=0.
 ***** Axes restored to original set *****
 -------------------------------------------------------------------
 Center     Atomic                   Forces (Hartrees/Bohr)
 Number     Number              X              Y              Z
 -------------------------------------------------------------------
      1        8           0.000145259   -0.000120575    0.000174430
      2        8           0.000532928    0.000062665   -0.000174454
      3        1          -0.001607961    0.000630000   -0.000153631
      4        8           0.001701077    0.000755393    0.000196493
      5        1          -0.000771303   -0.001327484   -0.000042838
 -------------------------------------------------------------------
 Cartesian Forces:  Max     0.001701077 RMS     0.000785380

 GradGradGradGradGradGradGradGradGradGradGradGradGradGradGradGradGradGrad
 Berny optimization.
 Internal  Forces:  Max     0.002622530 RMS     0.000945815
 Search for a saddle point.
 Step number  41 out of a maximum of  100
 All quantities printed in internal units (Hartrees-Bohrs-Radians)
 Swaping is turned off.
 Update second derivatives using D2CorX and points   32   33   34   37   38
                                                     39   40   41
 The second derivative matrix:
                          R1        R2        R3        R4        A1
           R1           0.78601
           R2          -0.01301   0.08152
           R3          -0.00857   0.00127   0.46709
           R4          -0.00264   0.00433   0.00204   0.57957
           A1          -0.00060   0.04112  -0.00332   0.00114   0.06778
           A2          -0.00012   0.00369   0.02283   0.02816  -0.00267
           A3          -0.00438   0.02201   0.00101   0.00251   0.00905
           A4          -0.02476   0.13763   0.00158   0.00782   0.06126
           A5          -0.01303   0.07163   0.00409   0.00715   0.03375
                          A2        A3        A4        A5
           A2           0.12743
           A3           0.00277   0.00644
           A4          -0.00235   0.03606   0.23093
           A5           0.01602   0.02079   0.12321   0.06811
     Eigenvalues ---   -0.00236   0.00068   0.00229   0.04809   0.12607
     Eigenvalues ---    0.40084   0.46838   0.58212   0.78878
 Eigenvectors required to have negative eigenvalues:
                          R2        A4        A5        A3        A2
   1                    0.57863  -0.53772   0.50307  -0.33299  -0.08316
                          A1        R4        R1        R3
   1                   -0.07189   0.00234  -0.00093   0.00008
 RFO step:  Lambda0=1.967724556D-05 Lambda=-1.34795942D-04.
 Linear search not attempted -- option 19 set.
 Maximum step size (   0.300) exceeded in Quadratic search.
    -- Step size scaled by   0.931
 Iteration  1 RMS(Cart)=  0.04229378 RMS(Int)=  0.02275890
 Iteration  2 RMS(Cart)=  0.01467506 RMS(Int)=  0.00029103
 Iteration  3 RMS(Cart)=  0.00029423 RMS(Int)=  0.00000002
 Iteration  4 RMS(Cart)=  0.00000002 RMS(Int)=  0.00000000
 Variable       Old X    -DE/DX   Delta X   Delta X   Delta X     New X
                                 (Linear)    (Quad)   (Total)
    R1        2.25954   0.00009   0.00000  -0.00002  -0.00002   2.25952
    R2        6.18067  -0.00067   0.00000  -0.07344  -0.07344   6.10723
    R3        1.81842   0.00029   0.00000  -0.00038  -0.00038   1.81804
    R4        1.81840   0.00004   0.00000  -0.00059  -0.00059   1.81781
    A1        1.66996  -0.00033   0.00000  -0.00046  -0.00046   1.66949
    A2        1.81784   0.00262   0.00000   0.01454   0.01454   1.83238
    A3        3.44942  -0.00019   0.00000  -0.26929  -0.26929   3.18012
    A4        1.22669  -0.00068   0.00000   0.02698   0.02698   1.25367
    A5        3.36447  -0.00013   0.00000   0.10558   0.10558   3.47006
         Item               Value     Threshold  Converged?
 Maximum Force            0.002623     0.000450     NO 
 RMS     Force            0.000946     0.000300     NO 
 Maximum Displacement     0.119830     0.001800     NO 
 RMS     Displacement     0.051651     0.001200     NO 
 Predicted change in Energy=-6.279947D-05
 GradGradGradGradGradGradGradGradGradGradGradGradGradGradGradGradGradGrad

                          Input orientation:                          
 ---------------------------------------------------------------------
 Center     Atomic      Atomic             Coordinates (Angstroms)
 Number     Number       Type             X           Y           Z
 ---------------------------------------------------------------------
      1          8           0       -1.463141   -0.556874   -0.125026
      2          8           0       -1.391001    0.632667   -0.027770
      3          1           0        1.838356    0.757899   -0.039698
      4          8           0        1.560208   -0.146512    0.134199
      5          1           0        2.369095   -0.653592    0.252121
 ---------------------------------------------------------------------
                    Distance matrix (angstroms):
                    1          2          3          4          5
     1  O    0.000000
     2  O    1.195689   0.000000
     3  H    3.554686   3.231807   0.000000
     4  O    3.062063   3.056630   0.962064   0.000000
     5  H    3.851965   3.983858   1.535952   0.961943   0.000000
 Stoichiometry    H2O3
 Framework group  C1[X(H2O3)]
 Deg. of freedom     9
 Full point group                 C1      NOp   1
 Largest Abelian subgroup         C1      NOp   1
 Largest concise Abelian subgroup C1      NOp   1
                         Standard orientation:                         
 ---------------------------------------------------------------------
 Center     Atomic      Atomic             Coordinates (Angstroms)
 Number     Number       Type             X           Y           Z
 ---------------------------------------------------------------------
      1          8           0        1.204740   -0.600046    0.023891
      2          8           0        1.184586    0.594457   -0.025382
      3          1           0       -2.026818    0.868822    0.211652
      4          8           0       -1.805445   -0.040013   -0.013244
      5          1           0       -2.644229   -0.504008   -0.093777
 ---------------------------------------------------------------------
 Rotational constants (GHZ):     40.3510648      4.6523421      4.1763125
 Standard basis: 6-31+G(d,p) (6D, 7F)
 There are    67 symmetry adapted basis functions of A   symmetry.
 Integral buffers will be    262144 words long.
 Raffenetti 2 integral format.
 Two-electron integral symmetry is turned on.
    67 basis functions,   110 primitive gaussians,    67 cartesian basis functions
    13 alpha electrons       13 beta electrons
       nuclear repulsion energy        64.2731175953 Hartrees.
 NAtoms=    5 NActive=    5 NUniq=    5 SFac= 7.50D-01 NAtFMM=   80 NAOKFM=F Big=F
 One-electron integrals computed using PRISM.
 NBasis=    67 RedAO= T  NBF=    67
 NBsUse=    67 1.00D-06 NBFU=    67
 Initial guess read from the read-write file.
 B after Tr=     0.000000    0.000000    0.000000
         Rot=    1.000000    0.000000    0.000000    0.000000 Ang=   0.00 deg.
 Initial guess orbital symmetries:
       Occupied  (A) (A) (A) (A) (A) (A) (A) (A) (A) (A) (A) (A)
                 (A)
       Virtual   (A) (A) (A) (A) (A) (A) (A) (A) (A) (A) (A) (A)
                 (A) (A) (A) (A) (A) (A) (A) (A) (A) (A) (A) (A)
                 (A) (A) (A) (A) (A) (A) (A) (A) (A) (A) (A) (A)
                 (A) (A) (A) (A) (A) (A) (A) (A) (A) (A) (A) (A)
                 (A) (A) (A) (A) (A) (A)
 Harris functional with IExCor= 1009 diagonalized for initial guess.
 ExpMin= 8.45D-02 ExpMax= 5.48D+03 ExpMxC= 8.25D+02 IAcc=2 IRadAn=         0 AccDes= 0.00D+00
 HarFok:  IExCor= 1009 AccDes= 0.00D+00 IRadAn=         0 IDoV= 1
 ScaDFX=  1.000000  1.000000  1.000000  1.000000
 FoFCou: FMM=F IPFlag=           0 FMFlag=      100000 FMFlg1=           0
         NFxFlg=           0 DoJE=T BraDBF=F KetDBF=T FulRan=T
         Omega=  0.000000  0.000000  1.000000  0.000000  0.000000 ICntrl=     500 IOpCl=  0
         NMat0=    1 NMatS0=    1 NMatT0=    0 NMatD0=    1 NMtDS0=    0 NMtDT0=    0
         I1Cent=           4 NGrid=           0.
 Petite list used in FoFCou.
 Requested convergence on RMS density matrix=1.00D-08 within 128 cycles.
 Requested convergence on MAX density matrix=1.00D-06.
 Requested convergence on             energy=1.00D-06.
 No special actions if energy rises.
 Keep R1 ints in memory in canonical form, NReq=3551380.
 Integral accuracy reduced to 1.0D-05 until final iterations.
 Initial convergence to 1.0D-05 achieved.  Increase integral accuracy.
 >>>>>>>>>> Convergence criterion not met.
 SCF Done:  E(RM062X) =  -226.600703593     A.U. after  129 cycles
             Convg  =    0.2003D-04             -V/T =  2.0081
 Convergence failure -- run terminated.
 Error termination via Lnk1e in C:\G09W\l502.exe at Mon Feb 08 20:02:34 2021.
 Job cpu time:  0 days  0 hours  5 minutes 33.0 seconds.
 File lengths (MBytes):  RWF=      5 Int=      0 D2E=      0 Chk=      1 Scr=      1
