 Entering Link 1 = C:\G09W\l1.exe PID=      7592.
  
 Copyright (c) 1988,1990,1992,1993,1995,1998,2003,2009, Gaussian, Inc.
                  All Rights Reserved.
  
 This is part of the Gaussian(R) 09 program.  It is based on
 the Gaussian(R) 03 system (copyright 2003, Gaussian, Inc.),
 the Gaussian(R) 98 system (copyright 1998, Gaussian, Inc.),
 the Gaussian(R) 94 system (copyright 1995, Gaussian, Inc.),
 the Gaussian 92(TM) system (copyright 1992, Gaussian, Inc.),
 the Gaussian 90(TM) system (copyright 1990, Gaussian, Inc.),
 the Gaussian 88(TM) system (copyright 1988, Gaussian, Inc.),
 the Gaussian 86(TM) system (copyright 1986, Carnegie Mellon
 University), and the Gaussian 82(TM) system (copyright 1983,
 Carnegie Mellon University). Gaussian is a federally registered
 trademark of Gaussian, Inc.
  
 This software contains proprietary and confidential information,
 including trade secrets, belonging to Gaussian, Inc.
  
 This software is provided under written license and may be
 used, copied, transmitted, or stored only in accord with that
 written license.
  
 The following legend is applicable only to US Government
 contracts under FAR:
  
                    RESTRICTED RIGHTS LEGEND
  
 Use, reproduction and disclosure by the US Government is
 subject to restrictions as set forth in subparagraphs (a)
 and (c) of the Commercial Computer Software - Restricted
 Rights clause in FAR 52.227-19.
  
 Gaussian, Inc.
 340 Quinnipiac St., Bldg. 40, Wallingford CT 06492
  
  
 ---------------------------------------------------------------
 Warning -- This program may not be used in any manner that
 competes with the business of Gaussian, Inc. or will provide
 assistance to any competitor of Gaussian, Inc.  The licensee
 of this program is prohibited from giving any competitor of
 Gaussian, Inc. access to this program.  By using this program,
 the user acknowledges that Gaussian, Inc. is engaged in the
 business of creating and licensing software in the field of
 computational chemistry and represents and warrants to the
 licensee that it is not a competitor of Gaussian, Inc. and that
 it will not use this program in any manner prohibited above.
 ---------------------------------------------------------------
  

 Cite this work as:
 Gaussian 09, Revision A.02,
 M. J. Frisch, G. W. Trucks, H. B. Schlegel, G. E. Scuseria, 
 M. A. Robb, J. R. Cheeseman, G. Scalmani, V. Barone, B. Mennucci, 
 G. A. Petersson, H. Nakatsuji, M. Caricato, X. Li, H. P. Hratchian, 
 A. F. Izmaylov, J. Bloino, G. Zheng, J. L. Sonnenberg, M. Hada, 
 M. Ehara, K. Toyota, R. Fukuda, J. Hasegawa, M. Ishida, T. Nakajima, 
 Y. Honda, O. Kitao, H. Nakai, T. Vreven, J. A. Montgomery, Jr., 
 J. E. Peralta, F. Ogliaro, M. Bearpark, J. J. Heyd, E. Brothers, 
 K. N. Kudin, V. N. Staroverov, R. Kobayashi, J. Normand, 
 K. Raghavachari, A. Rendell, J. C. Burant, S. S. Iyengar, J. Tomasi, 
 M. Cossi, N. Rega, J. M. Millam, M. Klene, J. E. Knox, J. B. Cross, 
 V. Bakken, C. Adamo, J. Jaramillo, R. Gomperts, R. E. Stratmann, 
 O. Yazyev, A. J. Austin, R. Cammi, C. Pomelli, J. W. Ochterski, 
 R. L. Martin, K. Morokuma, V. G. Zakrzewski, G. A. Voth, 
 P. Salvador, J. J. Dannenberg, S. Dapprich, A. D. Daniels, 
 O. Farkas, J. B. Foresman, J. V. Ortiz, J. Cioslowski, 
 and D. J. Fox, Gaussian, Inc., Wallingford CT, 2009.
 
 ******************************************
 Gaussian 09:  IA32W-G09RevA.02 11-Jun-2009
                17-Jan-2021 
 ******************************************
 %chk=D:\Documents\rayGit\FQ\quimicaComputacional\p3Eteno\reactivos\etheneB3lyp.c
 hk
 %nprocshared=4
 Will use up to    4 processors via shared memory.
 %mem=1500mb
 ------------------------------------
 # opt freq=noraman 6-31+g(d,p) b3lyp
 ------------------------------------
 1/14=-1,18=20,19=15,26=3,38=1/1,3;
 2/9=110,12=2,17=6,18=5,40=1/2;
 3/5=1,6=6,7=111,11=2,16=1,25=1,30=1,71=1,74=-5/1,2,3;
 4//1;
 5/5=2,38=5/2;
 6/7=2,8=2,9=2,10=2,28=1/1;
 7//1,2,3,16;
 1/14=-1,18=20,19=15/3(2);
 2/9=110/2;
 99//99;
 2/9=110/2;
 3/5=1,6=6,7=111,11=2,16=1,25=1,30=1,71=1,74=-5/1,2,3;
 4/5=5,16=3/1;
 5/5=2,38=5/2;
 7//1,2,3,16;
 1/14=-1,18=20,19=15/3(-5);
 2/9=110/2;
 6/7=2,8=2,9=2,10=2,19=2,28=1/1;
 99/9=1/99;
 ------------
 Ethene B3lyp
 ------------
 Symbolic Z-matrix:
 Charge =  0 Multiplicity = 1
 C                    -3.48624  -2.95107   0. 
 H                    -2.95307  -3.87878   0. 
 H                    -4.55624  -2.95107   0. 
 C                    -2.81096  -1.77609   0. 
 H                    -3.34413  -0.84839   0. 
 H                    -1.74096  -1.77609   0. 
 

 GradGradGradGradGradGradGradGradGradGradGradGradGradGradGradGradGradGrad
 Berny optimization.
 Initialization pass.
                           ----------------------------
                           !    Initial Parameters    !
                           ! (Angstroms and Degrees)  !
 --------------------------                            --------------------------
 ! Name  Definition              Value          Derivative Info.                !
 --------------------------------------------------------------------------------
 ! R1    R(1,2)                  1.07           estimate D2E/DX2                !
 ! R2    R(1,3)                  1.07           estimate D2E/DX2                !
 ! R3    R(1,4)                  1.3552         estimate D2E/DX2                !
 ! R4    R(4,5)                  1.07           estimate D2E/DX2                !
 ! R5    R(4,6)                  1.07           estimate D2E/DX2                !
 ! A1    A(2,1,3)              119.8865         estimate D2E/DX2                !
 ! A2    A(2,1,4)              120.2269         estimate D2E/DX2                !
 ! A3    A(3,1,4)              119.8865         estimate D2E/DX2                !
 ! A4    A(1,4,5)              120.2269         estimate D2E/DX2                !
 ! A5    A(1,4,6)              119.8865         estimate D2E/DX2                !
 ! A6    A(5,4,6)              119.8865         estimate D2E/DX2                !
 ! D1    D(2,1,4,5)            180.0            estimate D2E/DX2                !
 ! D2    D(2,1,4,6)              0.0            estimate D2E/DX2                !
 ! D3    D(3,1,4,5)              0.0            estimate D2E/DX2                !
 ! D4    D(3,1,4,6)            180.0            estimate D2E/DX2                !
 --------------------------------------------------------------------------------
 Trust Radius=3.00D-01 FncErr=1.00D-07 GrdErr=1.00D-06
 Number of steps in this run=  25 maximum allowed number of steps= 100.
 GradGradGradGradGradGradGradGradGradGradGradGradGradGradGradGradGradGrad

                          Input orientation:                          
 ---------------------------------------------------------------------
 Center     Atomic      Atomic             Coordinates (Angstroms)
 Number     Number       Type             X           Y           Z
 ---------------------------------------------------------------------
      1          6           0       -3.486239   -2.951070    0.000000
      2          1           0       -2.953075   -3.878775    0.000000
      3          1           0       -4.556239   -2.951070    0.000000
      4          6           0       -2.810964   -1.776093    0.000000
      5          1           0       -3.344128   -0.848388    0.000000
      6          1           0       -1.740964   -1.776093    0.000000
 ---------------------------------------------------------------------
                    Distance matrix (angstroms):
                    1          2          3          4          5
     1  C    0.000000
     2  H    1.070000   0.000000
     3  H    1.070000   1.852234   0.000000
     4  C    1.355200   2.107479   2.103938   0.000000
     5  H    2.107479   3.055514   2.427032   1.070000   0.000000
     6  H    2.103938   2.427032   3.050630   1.070000   1.852234
                    6
     6  H    0.000000
 Stoichiometry    C2H4
 Framework group  C2H[SGH(C2H4)]
 Deg. of freedom     5
 Full point group                 C2H     NOp   4
 Largest Abelian subgroup         C2H     NOp   4
 Largest concise Abelian subgroup C2      NOp   2
                         Standard orientation:                         
 ---------------------------------------------------------------------
 Center     Atomic      Atomic             Coordinates (Angstroms)
 Number     Number       Type             X           Y           Z
 ---------------------------------------------------------------------
      1          6           0        0.000000    0.677600    0.000000
      2          1           0        0.924521    1.216266    0.000000
      3          1           0       -0.927705    1.210764    0.000000
      4          6           0        0.000000   -0.677600    0.000000
      5          1           0       -0.924521   -1.216266    0.000000
      6          1           0        0.927705   -1.210764    0.000000
 ---------------------------------------------------------------------
 Rotational constants (GHZ):    146.1648690     29.8053188     24.7569806
 Standard basis: 6-31+G(d,p) (6D, 7F)
 There are    22 symmetry adapted basis functions of AG  symmetry.
 There are     7 symmetry adapted basis functions of BG  symmetry.
 There are     7 symmetry adapted basis functions of AU  symmetry.
 There are    22 symmetry adapted basis functions of BU  symmetry.
 Integral buffers will be    262144 words long.
 Raffenetti 2 integral format.
 Two-electron integral symmetry is turned on.
    58 basis functions,    92 primitive gaussians,    58 cartesian basis functions
     8 alpha electrons        8 beta electrons
       nuclear repulsion energy        33.3121054968 Hartrees.
 NAtoms=    6 NActive=    6 NUniq=    3 SFac= 3.00D+00 NAtFMM=   80 NAOKFM=F Big=F
 One-electron integrals computed using PRISM.
 NBasis=    58 RedAO= T  NBF=    22     7     7    22
 NBsUse=    58 1.00D-06 NBFU=    22     7     7    22
 Harris functional with IExCor=  402 diagonalized for initial guess.
 ExpMin= 4.38D-02 ExpMax= 3.05D+03 ExpMxC= 4.57D+02 IAcc=2 IRadAn=         0 AccDes= 0.00D+00
 HarFok:  IExCor=  402 AccDes= 0.00D+00 IRadAn=         0 IDoV= 1
 ScaDFX=  1.000000  1.000000  1.000000  1.000000
 FoFCou: FMM=F IPFlag=           0 FMFlag=      100000 FMFlg1=           0
         NFxFlg=           0 DoJE=T BraDBF=F KetDBF=T FulRan=T
         Omega=  0.000000  0.000000  1.000000  0.000000  0.000000 ICntrl=     500 IOpCl=  0
         NMat0=    1 NMatS0=    1 NMatT0=    0 NMatD0=    1 NMtDS0=    0 NMtDT0=    0
         I1Cent=           4 NGrid=           0.
 Petite list used in FoFCou.
 Initial guess orbital symmetries:
       Occupied  (AG) (BU) (AG) (BU) (BU) (AG) (AG) (AU)
       Virtual   (BG) (AG) (BU) (BU) (AU) (AG) (AG) (BG) (AG) (BU)
                 (BU) (BU) (BU) (AG) (AG) (BU) (AU) (BU) (BG) (AG)
                 (BU) (AG) (AG) (BU) (BU) (AG) (AU) (BG) (AU) (AG)
                 (BU) (AG) (AG) (BU) (BG) (BU) (AU) (BG) (BU) (BG)
                 (AU) (AG) (AG) (BU) (AG) (BU) (BU) (AG) (AG) (BU)
 The electronic state of the initial guess is 1-AG.
 Requested convergence on RMS density matrix=1.00D-08 within 128 cycles.
 Requested convergence on MAX density matrix=1.00D-06.
 Requested convergence on             energy=1.00D-06.
 No special actions if energy rises.
 Keep R1 ints in memory in canonical form, NReq=2416652.
 SCF Done:  E(RB3LYP) =  -78.5980675136     A.U. after    8 cycles
             Convg  =    0.1338D-08             -V/T =  2.0104

 **********************************************************************

            Population analysis using the SCF density.

 **********************************************************************

 Orbital symmetries:
       Occupied  (AG) (BU) (AG) (BU) (BU) (AG) (AG) (AU)
       Virtual   (BG) (AG) (BU) (BU) (AU) (AG) (AG) (BG) (BU) (AG)
                 (BU) (BU) (BU) (AG) (AG) (BU) (AU) (BG) (BU) (AG)
                 (BU) (AG) (AG) (BU) (BU) (AG) (BG) (AU) (AU) (AG)
                 (BU) (AG) (AG) (BU) (BG) (BU) (AU) (BG) (BU) (BG)
                 (AU) (AG) (AG) (BU) (AG) (BU) (BU) (AG) (AG) (BU)
 The electronic state is 1-AG.
 Alpha  occ. eigenvalues --  -10.19429 -10.19353  -0.76356  -0.58852  -0.48004
 Alpha  occ. eigenvalues --   -0.41743  -0.37013  -0.27472
 Alpha virt. eigenvalues --   -0.01276   0.02506   0.03375   0.04697   0.06967
 Alpha virt. eigenvalues --    0.08628   0.08688   0.12722   0.15784   0.17912
 Alpha virt. eigenvalues --    0.20535   0.25103   0.34298   0.34850   0.57281
 Alpha virt. eigenvalues --    0.64385   0.67662   0.72016   0.74879   0.81586
 Alpha virt. eigenvalues --    0.90608   0.92604   0.95447   1.00021   1.15136
 Alpha virt. eigenvalues --    1.21862   1.37341   1.37965   1.50830   1.86932
 Alpha virt. eigenvalues --    1.91309   1.97131   1.99654   2.07599   2.13928
 Alpha virt. eigenvalues --    2.25046   2.36034   2.47653   2.52240   2.58091
 Alpha virt. eigenvalues --    2.70291   2.75411   2.75720   2.99307   3.24622
 Alpha virt. eigenvalues --    3.36306   3.54556   3.74783   4.21773   4.51592
          Condensed to atoms (all electrons):
              1          2          3          4          5          6
     1  C    4.853670   0.391498   0.391443   0.693695  -0.028991  -0.029160
     2  H    0.391498   0.540563  -0.035216  -0.028991   0.004609  -0.008704
     3  H    0.391443  -0.035216   0.541060  -0.029160  -0.008704   0.004663
     4  C    0.693695  -0.028991  -0.029160   4.853670   0.391498   0.391443
     5  H   -0.028991   0.004609  -0.008704   0.391498   0.540563  -0.035216
     6  H   -0.029160  -0.008704   0.004663   0.391443  -0.035216   0.541060
 Mulliken atomic charges:
              1
     1  C   -0.272155
     2  H    0.136241
     3  H    0.135914
     4  C   -0.272155
     5  H    0.136241
     6  H    0.135914
 Sum of Mulliken atomic charges =   0.00000
 Mulliken charges with hydrogens summed into heavy atoms:
              1
     1  C    0.000000
     4  C    0.000000
 Sum of Mulliken charges with hydrogens summed into heavy atoms =   0.00000
 Electronic spatial extent (au):  <R**2>=             83.3418
 Charge=              0.0000 electrons
 Dipole moment (field-independent basis, Debye):
    X=              0.0000    Y=              0.0000    Z=              0.0000  Tot=              0.0000
 Quadrupole moment (field-independent basis, Debye-Ang):
   XX=            -12.2755   YY=            -12.5671   ZZ=            -16.0189
   XY=              0.0133   XZ=              0.0000   YZ=              0.0000
 Traceless Quadrupole moment (field-independent basis, Debye-Ang):
   XX=              1.3450   YY=              1.0534   ZZ=             -2.3984
   XY=              0.0133   XZ=              0.0000   YZ=              0.0000
 Octapole moment (field-independent basis, Debye-Ang**2):
  XXX=              0.0000  YYY=              0.0000  ZZZ=              0.0000  XYY=              0.0000
  XXY=              0.0000  XXZ=              0.0000  XZZ=              0.0000  YZZ=              0.0000
  YYZ=              0.0000  XYZ=              0.0000
 Hexadecapole moment (field-independent basis, Debye-Ang**3):
 XXXX=            -27.8466 YYYY=            -71.2406 ZZZZ=            -22.6191 XXXY=              0.0045
 XXXZ=              0.0000 YYYX=              0.0598 YYYZ=              0.0000 ZZZX=              0.0000
 ZZZY=              0.0000 XXYY=            -14.0867 XXZZ=             -9.0662 YYZZ=            -16.5554
 XXYZ=              0.0000 YYXZ=              0.0000 ZZXY=              0.0020
 N-N= 3.331210549684D+01 E-N=-2.478882384670D+02  KE= 7.779018381501D+01
 Symmetry AG   KE= 3.949773525704D+01
 Symmetry BG   KE= 4.534195024989D-32
 Symmetry AU   KE= 2.012069422759D+00
 Symmetry BU   KE= 3.628037913520D+01
 Calling FoFJK, ICntrl=      2127 FMM=F ISym2X=1 I1Cent= 0 IOpClX= 0 NMat=1 NMatS=1 NMatT=0.
 ***** Axes restored to original set *****
 -------------------------------------------------------------------
 Center     Atomic                   Forces (Hartrees/Bohr)
 Number     Number              X              Y              Z
 -------------------------------------------------------------------
      1        6           0.018018860    0.032856583    0.000000000
      2        1           0.002402658   -0.011699922    0.000000000
      3        1          -0.011478873   -0.004190839    0.000000000
      4        6          -0.018018860   -0.032856583    0.000000000
      5        1          -0.002402658    0.011699922    0.000000000
      6        1           0.011478873    0.004190839    0.000000000
 -------------------------------------------------------------------
 Cartesian Forces:  Max     0.032856583 RMS     0.013728409

 GradGradGradGradGradGradGradGradGradGradGradGradGradGradGradGradGradGrad
 Berny optimization.
 Internal  Forces:  Max     0.019165580 RMS     0.008061287
 Search for a local minimum.
 Step number   1 out of a maximum of   25
 All quantities printed in internal units (Hartrees-Bohrs-Radians)
 Mixed Optimization -- RFO/linear search
 Second derivative matrix not updated -- first step.
 The second derivative matrix:
                          R1        R2        R3        R4        R5
           R1           0.37230
           R2           0.00000   0.37230
           R3           0.00000   0.00000   0.53930
           R4           0.00000   0.00000   0.00000   0.37230
           R5           0.00000   0.00000   0.00000   0.00000   0.37230
           A1           0.00000   0.00000   0.00000   0.00000   0.00000
           A2           0.00000   0.00000   0.00000   0.00000   0.00000
           A3           0.00000   0.00000   0.00000   0.00000   0.00000
           A4           0.00000   0.00000   0.00000   0.00000   0.00000
           A5           0.00000   0.00000   0.00000   0.00000   0.00000
           A6           0.00000   0.00000   0.00000   0.00000   0.00000
           D1           0.00000   0.00000   0.00000   0.00000   0.00000
           D2           0.00000   0.00000   0.00000   0.00000   0.00000
           D3           0.00000   0.00000   0.00000   0.00000   0.00000
           D4           0.00000   0.00000   0.00000   0.00000   0.00000
                          A1        A2        A3        A4        A5
           A1           0.16000
           A2           0.00000   0.16000
           A3           0.00000   0.00000   0.16000
           A4           0.00000   0.00000   0.00000   0.16000
           A5           0.00000   0.00000   0.00000   0.00000   0.16000
           A6           0.00000   0.00000   0.00000   0.00000   0.00000
           D1           0.00000   0.00000   0.00000   0.00000   0.00000
           D2           0.00000   0.00000   0.00000   0.00000   0.00000
           D3           0.00000   0.00000   0.00000   0.00000   0.00000
           D4           0.00000   0.00000   0.00000   0.00000   0.00000
                          A6        D1        D2        D3        D4
           A6           0.16000
           D1           0.00000   0.02681
           D2           0.00000   0.00000   0.02681
           D3           0.00000   0.00000   0.00000   0.02681
           D4           0.00000   0.00000   0.00000   0.00000   0.02681
     Eigenvalues ---    0.02681   0.02681   0.02681   0.16000   0.16000
     Eigenvalues ---    0.16000   0.16000   0.37230   0.37230   0.37230
     Eigenvalues ---    0.37230   0.539301000.000001000.000001000.00000
 RFO step:  Lambda=-2.59997323D-03 EMin= 2.68137392D-02
 Linear search not attempted -- first point.
 Iteration  1 RMS(Cart)=  0.01593797 RMS(Int)=  0.00026113
 Iteration  2 RMS(Cart)=  0.00029567 RMS(Int)=  0.00000004
 Iteration  3 RMS(Cart)=  0.00000004 RMS(Int)=  0.00000000
 ClnCor:  largest displacement from symmetrization is 7.32D-14 for atom     6.
 Variable       Old X    -DE/DX   Delta X   Delta X   Delta X     New X
                                 (Linear)    (Quad)   (Total)
    R1        2.02201   0.01134   0.00000   0.03025   0.03025   2.05226
    R2        2.02201   0.01148   0.00000   0.03062   0.03062   2.05263
    R3        2.56096  -0.01917   0.00000  -0.03537  -0.03537   2.52559
    R4        2.02201   0.01134   0.00000   0.03025   0.03025   2.05226
    R5        2.02201   0.01148   0.00000   0.03062   0.03062   2.05263
    A1        2.09241  -0.00535   0.00000  -0.03290  -0.03290   2.05951
    A2        2.09836   0.00223   0.00000   0.01369   0.01369   2.11205
    A3        2.09241   0.00312   0.00000   0.01921   0.01921   2.11163
    A4        2.09836   0.00223   0.00000   0.01369   0.01369   2.11205
    A5        2.09241   0.00312   0.00000   0.01921   0.01921   2.11163
    A6        2.09241  -0.00535   0.00000  -0.03290  -0.03290   2.05951
    D1        3.14159   0.00000   0.00000   0.00000   0.00000   3.14159
    D2        0.00000   0.00000   0.00000   0.00000   0.00000   0.00000
    D3        0.00000   0.00000   0.00000   0.00000   0.00000   0.00000
    D4        3.14159   0.00000   0.00000   0.00000   0.00000   3.14159
         Item               Value     Threshold  Converged?
 Maximum Force            0.019166     0.000450     NO 
 RMS     Force            0.008061     0.000300     NO 
 Maximum Displacement     0.025318     0.001800     NO 
 RMS     Displacement     0.015988     0.001200     NO 
 Predicted change in Energy=-1.310690D-03
 GradGradGradGradGradGradGradGradGradGradGradGradGradGradGradGradGradGrad

                          Input orientation:                          
 ---------------------------------------------------------------------
 Center     Atomic      Atomic             Coordinates (Angstroms)
 Number     Number       Type             X           Y           Z
 ---------------------------------------------------------------------
      1          6           0       -3.482505   -2.942422    0.000000
      2          1           0       -2.955829   -3.892173    0.000000
      3          1           0       -4.568539   -2.961545    0.000000
      4          6           0       -2.814698   -1.784741    0.000000
      5          1           0       -3.341373   -0.834990    0.000000
      6          1           0       -1.728664   -1.765618    0.000000
 ---------------------------------------------------------------------
                    Distance matrix (angstroms):
                    1          2          3          4          5
     1  C    0.000000
     2  H    1.086008   0.000000
     3  H    1.086203   1.861961   0.000000
     4  C    1.336484   2.112152   2.112067   0.000000
     5  H    2.112152   3.081398   2.455234   1.086008   0.000000
     6  H    2.112067   2.455234   3.081417   1.086203   1.861961
                    6
     6  H    0.000000
 Stoichiometry    C2H4
 Framework group  C2H[SGH(C2H4)]
 Deg. of freedom     5
 Full point group                 C2H     NOp   4
 Largest Abelian subgroup         C2H     NOp   4
 Largest concise Abelian subgroup C2      NOp   2
                         Standard orientation:                         
 ---------------------------------------------------------------------
 Center     Atomic      Atomic             Coordinates (Angstroms)
 Number     Number       Type             X           Y           Z
 ---------------------------------------------------------------------
      1          6           0        0.000000    0.668242    0.000000
      2          1           0       -0.930779    1.227764    0.000000
      3          1           0        0.931182    1.227470    0.000000
      4          6           0        0.000000   -0.668242    0.000000
      5          1           0        0.930779   -1.227764    0.000000
      6          1           0       -0.931182   -1.227470    0.000000
 ---------------------------------------------------------------------
 Rotational constants (GHZ):    144.6407815     30.0955478     24.9120693
 Standard basis: 6-31+G(d,p) (6D, 7F)
 There are    22 symmetry adapted basis functions of AG  symmetry.
 There are     7 symmetry adapted basis functions of BG  symmetry.
 There are     7 symmetry adapted basis functions of AU  symmetry.
 There are    22 symmetry adapted basis functions of BU  symmetry.
 Integral buffers will be    262144 words long.
 Raffenetti 2 integral format.
 Two-electron integral symmetry is turned on.
    58 basis functions,    92 primitive gaussians,    58 cartesian basis functions
     8 alpha electrons        8 beta electrons
       nuclear repulsion energy        33.3034878219 Hartrees.
 NAtoms=    6 NActive=    6 NUniq=    3 SFac= 3.00D+00 NAtFMM=   80 NAOKFM=F Big=F
 One-electron integrals computed using PRISM.
 NBasis=    58 RedAO= T  NBF=    22     7     7    22
 NBsUse=    58 1.00D-06 NBFU=    22     7     7    22
 Initial guess read from the read-write file.
 B after Tr=     0.000000    0.000000    0.000000
         Rot=    1.000000    0.000000    0.000000    0.000000 Ang=   0.00 deg.
 Initial guess orbital symmetries:
       Occupied  (AG) (BU) (AG) (BU) (BU) (AG) (AG) (AU)
       Virtual   (BG) (AG) (BU) (BU) (AU) (AG) (AG) (BG) (BU) (AG)
                 (BU) (BU) (BU) (AG) (AG) (BU) (AU) (BG) (BU) (AG)
                 (BU) (AG) (AG) (BU) (BU) (AG) (BG) (AU) (AU) (AG)
                 (BU) (AG) (AG) (BU) (BG) (BU) (AU) (BG) (BU) (BG)
                 (AU) (AG) (AG) (BU) (AG) (BU) (BU) (AG) (AG) (BU)
 Harris functional with IExCor=  402 diagonalized for initial guess.
 ExpMin= 4.38D-02 ExpMax= 3.05D+03 ExpMxC= 4.57D+02 IAcc=2 IRadAn=         0 AccDes= 0.00D+00
 HarFok:  IExCor=  402 AccDes= 0.00D+00 IRadAn=         0 IDoV= 1
 ScaDFX=  1.000000  1.000000  1.000000  1.000000
 FoFCou: FMM=F IPFlag=           0 FMFlag=      100000 FMFlg1=           0
         NFxFlg=           0 DoJE=T BraDBF=F KetDBF=T FulRan=T
         Omega=  0.000000  0.000000  1.000000  0.000000  0.000000 ICntrl=     500 IOpCl=  0
         NMat0=    1 NMatS0=    1 NMatT0=    0 NMatD0=    1 NMtDS0=    0 NMtDT0=    0
         I1Cent=           4 NGrid=           0.
 Petite list used in FoFCou.
 Requested convergence on RMS density matrix=1.00D-08 within 128 cycles.
 Requested convergence on MAX density matrix=1.00D-06.
 Requested convergence on             energy=1.00D-06.
 No special actions if energy rises.
 Keep R1 ints in memory in canonical form, NReq=2416652.
 SCF Done:  E(RB3LYP) =  -78.5995373508     A.U. after    9 cycles
             Convg  =    0.7037D-09             -V/T =  2.0109
 Calling FoFJK, ICntrl=      2127 FMM=F ISym2X=1 I1Cent= 0 IOpClX= 0 NMat=1 NMatS=1 NMatT=0.
 ***** Axes restored to original set *****
 -------------------------------------------------------------------
 Center     Atomic                   Forces (Hartrees/Bohr)
 Number     Number              X              Y              Z
 -------------------------------------------------------------------
      1        6           0.002277114    0.004265991    0.000000000
      2        1          -0.001562586   -0.001309453    0.000000000
      3        1          -0.000230086   -0.002031744    0.000000000
      4        6          -0.002277114   -0.004265991    0.000000000
      5        1           0.001562586    0.001309453    0.000000000
      6        1           0.000230086    0.002031744    0.000000000
 -------------------------------------------------------------------
 Cartesian Forces:  Max     0.004265991 RMS     0.001877386

 GradGradGradGradGradGradGradGradGradGradGradGradGradGradGradGradGradGrad
 Berny optimization.
 Using GEDIIS/GDIIS optimizer.
 Internal  Forces:  Max     0.002756397 RMS     0.001273462
 Search for a local minimum.
 Step number   2 out of a maximum of   25
 All quantities printed in internal units (Hartrees-Bohrs-Radians)
 Mixed Optimization -- RFO/linear search
 Update second derivatives using D2CorX and points    1    2
 DE= -1.47D-03 DEPred=-1.31D-03 R= 1.12D+00
 SS=  1.41D+00  RLast= 9.07D-02 DXNew= 5.0454D-01 2.7223D-01
 Trust test= 1.12D+00 RLast= 9.07D-02 DXMaxT set to 3.00D-01
 The second derivative matrix:
                          R1        R2        R3        R4        R5
           R1           0.37641
           R2           0.00478   0.37776
           R3          -0.00488  -0.00595   0.54411
           R4           0.00411   0.00478  -0.00488   0.37641
           R5           0.00478   0.00546  -0.00595   0.00478   0.37776
           A1           0.01037   0.01035  -0.01806   0.01037   0.01035
           A2          -0.00531  -0.00533   0.00916  -0.00531  -0.00533
           A3          -0.00506  -0.00503   0.00890  -0.00506  -0.00503
           A4          -0.00531  -0.00533   0.00916  -0.00531  -0.00533
           A5          -0.00506  -0.00503   0.00890  -0.00506  -0.00503
           A6           0.01037   0.01035  -0.01806   0.01037   0.01035
           D1           0.00000   0.00000   0.00000   0.00000   0.00000
           D2           0.00000   0.00000   0.00000   0.00000   0.00000
           D3           0.00000   0.00000   0.00000   0.00000   0.00000
           D4           0.00000   0.00000   0.00000   0.00000   0.00000
                          A1        A2        A3        A4        A5
           A1           0.15224
           A2           0.00346   0.15848
           A3           0.00430  -0.00194   0.15765
           A4           0.00346  -0.00152  -0.00194   0.15848
           A5           0.00430  -0.00194  -0.00235  -0.00194   0.15765
           A6          -0.00776   0.00346   0.00430   0.00346   0.00430
           D1           0.00000   0.00000   0.00000   0.00000   0.00000
           D2           0.00000   0.00000   0.00000   0.00000   0.00000
           D3           0.00000   0.00000   0.00000   0.00000   0.00000
           D4           0.00000   0.00000   0.00000   0.00000   0.00000
                          A6        D1        D2        D3        D4
           A6           0.15224
           D1           0.00000   0.02681
           D2           0.00000   0.00000   0.02681
           D3           0.00000   0.00000   0.00000   0.02681
           D4           0.00000   0.00000   0.00000   0.00000   0.02681
 Use linear search instead of GDIIS.
     Eigenvalues ---    0.02681   0.02681   0.02681   0.12960   0.16000
     Eigenvalues ---    0.16000   0.16007   0.37225   0.37230   0.37230
     Eigenvalues ---    0.39498   0.547701000.000001000.000001000.00000
 RFO step:  Lambda=-1.32102321D-04 EMin= 2.68137392D-02
 Quartic linear search produced a step of  0.15728.
 Iteration  1 RMS(Cart)=  0.01061289 RMS(Int)=  0.00006296
 Iteration  2 RMS(Cart)=  0.00006346 RMS(Int)=  0.00000000
 Iteration  3 RMS(Cart)=  0.00000000 RMS(Int)=  0.00000000
 ClnCor:  largest displacement from symmetrization is 2.54D-13 for atom     1.
 Variable       Old X    -DE/DX   Delta X   Delta X   Delta X     New X
                                 (Linear)    (Quad)   (Total)
    R1        2.05226   0.00039   0.00476  -0.00204   0.00272   2.05498
    R2        2.05263   0.00027   0.00482  -0.00245   0.00236   2.05499
    R3        2.52559  -0.00104  -0.00556   0.00156  -0.00401   2.52158
    R4        2.05226   0.00039   0.00476  -0.00204   0.00272   2.05498
    R5        2.05263   0.00027   0.00482  -0.00245   0.00236   2.05499
    A1        2.05951  -0.00276  -0.00517  -0.01642  -0.02160   2.03792
    A2        2.11205   0.00135   0.00215   0.00831   0.01046   2.12251
    A3        2.11163   0.00141   0.00302   0.00811   0.01113   2.12276
    A4        2.11205   0.00135   0.00215   0.00831   0.01046   2.12251
    A5        2.11163   0.00141   0.00302   0.00811   0.01113   2.12276
    A6        2.05951  -0.00276  -0.00517  -0.01642  -0.02160   2.03792
    D1        3.14159   0.00000   0.00000   0.00000   0.00000   3.14159
    D2        0.00000   0.00000   0.00000   0.00000   0.00000   0.00000
    D3        0.00000   0.00000   0.00000   0.00000   0.00000   0.00000
    D4        3.14159   0.00000   0.00000   0.00000   0.00000   3.14159
         Item               Value     Threshold  Converged?
 Maximum Force            0.002756     0.000450     NO 
 RMS     Force            0.001273     0.000300     NO 
 Maximum Displacement     0.020584     0.001800     NO 
 RMS     Displacement     0.010622     0.001200     NO 
 Predicted change in Energy=-9.235998D-05
 GradGradGradGradGradGradGradGradGradGradGradGradGradGradGradGradGradGrad

                          Input orientation:                          
 ---------------------------------------------------------------------
 Center     Atomic      Atomic             Coordinates (Angstroms)
 Number     Number       Type             X           Y           Z
 ---------------------------------------------------------------------
      1          6           0       -3.482103   -2.941430    0.000000
      2          1           0       -2.964921   -3.898022    0.000000
      3          1           0       -4.569114   -2.972438    0.000000
      4          6           0       -2.815100   -1.785733    0.000000
      5          1           0       -3.332282   -0.829142    0.000000
      6          1           0       -1.728089   -1.754725    0.000000
 ---------------------------------------------------------------------
                    Distance matrix (angstroms):
                    1          2          3          4          5
     1  C    0.000000
     2  H    1.087449   0.000000
     3  H    1.087453   1.852064   0.000000
     4  C    1.334364   2.117595   2.117742   0.000000
     5  H    2.117595   3.090789   2.474565   1.087449   0.000000
     6  H    2.117742   2.474565   3.090994   1.087453   1.852064
                    6
     6  H    0.000000
 Stoichiometry    C2H4
 Framework group  C2H[SGH(C2H4)]
 Deg. of freedom     5
 Full point group                 C2H     NOp   4
 Largest Abelian subgroup         C2H     NOp   4
 Largest concise Abelian subgroup C2      NOp   2
                         Standard orientation:                         
 ---------------------------------------------------------------------
 Center     Atomic      Atomic             Coordinates (Angstroms)
 Number     Number       Type             X           Y           Z
 ---------------------------------------------------------------------
      1          6           0        0.000000    0.667182    0.000000
      2          1           0       -0.926100    1.237167    0.000000
      3          1           0        0.925964    1.237398    0.000000
      4          6           0        0.000000   -0.667182    0.000000
      5          1           0        0.926100   -1.237167    0.000000
      6          1           0       -0.925964   -1.237398    0.000000
 ---------------------------------------------------------------------
 Rotational constants (GHZ):    146.1908201     29.9847262     24.8813857
 Standard basis: 6-31+G(d,p) (6D, 7F)
 There are    22 symmetry adapted basis functions of AG  symmetry.
 There are     7 symmetry adapted basis functions of BG  symmetry.
 There are     7 symmetry adapted basis functions of AU  symmetry.
 There are    22 symmetry adapted basis functions of BU  symmetry.
 Integral buffers will be    262144 words long.
 Raffenetti 2 integral format.
 Two-electron integral symmetry is turned on.
    58 basis functions,    92 primitive gaussians,    58 cartesian basis functions
     8 alpha electrons        8 beta electrons
       nuclear repulsion energy        33.2945011633 Hartrees.
 NAtoms=    6 NActive=    6 NUniq=    3 SFac= 3.00D+00 NAtFMM=   80 NAOKFM=F Big=F
 One-electron integrals computed using PRISM.
 NBasis=    58 RedAO= T  NBF=    22     7     7    22
 NBsUse=    58 1.00D-06 NBFU=    22     7     7    22
 Initial guess read from the read-write file.
 B after Tr=     0.000000    0.000000    0.000000
         Rot=    1.000000    0.000000    0.000000    0.000000 Ang=   0.00 deg.
 Initial guess orbital symmetries:
       Occupied  (AG) (BU) (AG) (BU) (BU) (AG) (AG) (AU)
       Virtual   (BG) (AG) (BU) (BU) (AU) (AG) (AG) (BG) (BU) (AG)
                 (BU) (BU) (AG) (BU) (AG) (BU) (AU) (BG) (BU) (AG)
                 (BU) (AG) (AG) (BU) (BU) (AG) (BG) (AU) (AU) (AG)
                 (BU) (AG) (AG) (BU) (BG) (BU) (AU) (BG) (BU) (BG)
                 (AU) (AG) (AG) (BU) (AG) (BU) (BU) (AG) (AG) (BU)
 Harris functional with IExCor=  402 diagonalized for initial guess.
 ExpMin= 4.38D-02 ExpMax= 3.05D+03 ExpMxC= 4.57D+02 IAcc=2 IRadAn=         0 AccDes= 0.00D+00
 HarFok:  IExCor=  402 AccDes= 0.00D+00 IRadAn=         0 IDoV= 1
 ScaDFX=  1.000000  1.000000  1.000000  1.000000
 FoFCou: FMM=F IPFlag=           0 FMFlag=      100000 FMFlg1=           0
         NFxFlg=           0 DoJE=T BraDBF=F KetDBF=T FulRan=T
         Omega=  0.000000  0.000000  1.000000  0.000000  0.000000 ICntrl=     500 IOpCl=  0
         NMat0=    1 NMatS0=    1 NMatT0=    0 NMatD0=    1 NMtDS0=    0 NMtDT0=    0
         I1Cent=           4 NGrid=           0.
 Petite list used in FoFCou.
 Requested convergence on RMS density matrix=1.00D-08 within 128 cycles.
 Requested convergence on MAX density matrix=1.00D-06.
 Requested convergence on             energy=1.00D-06.
 No special actions if energy rises.
 Keep R1 ints in memory in canonical form, NReq=2416652.
 SCF Done:  E(RB3LYP) =  -78.5996424629     A.U. after    6 cycles
             Convg  =    0.7190D-08             -V/T =  2.0110
 Calling FoFJK, ICntrl=      2127 FMM=F ISym2X=1 I1Cent= 0 IOpClX= 0 NMat=1 NMatS=1 NMatT=0.
 ***** Axes restored to original set *****
 -------------------------------------------------------------------
 Center     Atomic                   Forces (Hartrees/Bohr)
 Number     Number              X              Y              Z
 -------------------------------------------------------------------
      1        6           0.000087697    0.000091536    0.000000000
      2        1          -0.000466104    0.000183491    0.000000000
      3        1           0.000400532   -0.000293887    0.000000000
      4        6          -0.000087697   -0.000091536    0.000000000
      5        1           0.000466104   -0.000183491    0.000000000
      6        1          -0.000400532    0.000293887    0.000000000
 -------------------------------------------------------------------
 Cartesian Forces:  Max     0.000466104 RMS     0.000238930

 GradGradGradGradGradGradGradGradGradGradGradGradGradGradGradGradGradGrad
 Berny optimization.
 Using GEDIIS/GDIIS optimizer.
 Internal  Forces:  Max     0.000430134 RMS     0.000277752
 Search for a local minimum.
 Step number   3 out of a maximum of   25
 All quantities printed in internal units (Hartrees-Bohrs-Radians)
 Mixed Optimization -- En-DIIS/RFO-DIIS
 Update second derivatives using D2CorX and points    1    2    3
 DE= -1.05D-04 DEPred=-9.24D-05 R= 1.14D+00
 SS=  1.41D+00  RLast= 3.80D-02 DXNew= 5.0454D-01 1.1391D-01
 Trust test= 1.14D+00 RLast= 3.80D-02 DXMaxT set to 3.00D-01
 The second derivative matrix:
                          R1        R2        R3        R4        R5
           R1           0.38225
           R2           0.01039   0.38316
           R3          -0.01057  -0.01160   0.54678
           R4           0.00995   0.01039  -0.01057   0.38225
           R5           0.01039   0.01086  -0.01160   0.01039   0.38316
           A1           0.00601   0.00582  -0.01938   0.00601   0.00582
           A2          -0.00341  -0.00333   0.01008  -0.00341  -0.00333
           A3          -0.00260  -0.00249   0.00929  -0.00260  -0.00249
           A4          -0.00341  -0.00333   0.01008  -0.00341  -0.00333
           A5          -0.00260  -0.00249   0.00929  -0.00260  -0.00249
           A6           0.00601   0.00582  -0.01938   0.00601   0.00582
           D1           0.00000   0.00000   0.00000   0.00000   0.00000
           D2           0.00000   0.00000   0.00000   0.00000   0.00000
           D3           0.00000   0.00000   0.00000   0.00000   0.00000
           D4           0.00000   0.00000   0.00000   0.00000   0.00000
                          A1        A2        A3        A4        A5
           A1           0.14470
           A2           0.00743   0.15642
           A3           0.00787  -0.00384   0.15597
           A4           0.00743  -0.00358  -0.00384   0.15642
           A5           0.00787  -0.00384  -0.00403  -0.00384   0.15597
           A6          -0.01530   0.00743   0.00787   0.00743   0.00787
           D1           0.00000   0.00000   0.00000   0.00000   0.00000
           D2           0.00000   0.00000   0.00000   0.00000   0.00000
           D3           0.00000   0.00000   0.00000   0.00000   0.00000
           D4           0.00000   0.00000   0.00000   0.00000   0.00000
                          A6        D1        D2        D3        D4
           A6           0.14470
           D1           0.00000   0.02681
           D2           0.00000   0.00000   0.02681
           D3           0.00000   0.00000   0.00000   0.02681
           D4           0.00000   0.00000   0.00000   0.00000   0.02681
 Use linear search instead of GDIIS.
     Eigenvalues ---    0.02681   0.02681   0.02681   0.11035   0.16000
     Eigenvalues ---    0.16000   0.16006   0.37230   0.37230   0.37230
     Eigenvalues ---    0.41103   0.553421000.000001000.000001000.00000
 RFO step:  Lambda=-2.46122324D-06 EMin= 2.68137392D-02
 Quartic linear search produced a step of  0.14665.
 Iteration  1 RMS(Cart)=  0.00190969 RMS(Int)=  0.00000189
 Iteration  2 RMS(Cart)=  0.00000192 RMS(Int)=  0.00000000
 Iteration  3 RMS(Cart)=  0.00000000 RMS(Int)=  0.00000000
 ClnCor:  largest displacement from symmetrization is 9.48D-14 for atom     5.
 Variable       Old X    -DE/DX   Delta X   Delta X   Delta X     New X
                                 (Linear)    (Quad)   (Total)
    R1        2.05498  -0.00038   0.00040  -0.00118  -0.00078   2.05420
    R2        2.05499  -0.00039   0.00035  -0.00115  -0.00080   2.05418
    R3        2.52158   0.00001  -0.00059   0.00014  -0.00044   2.52114
    R4        2.05498  -0.00038   0.00040  -0.00118  -0.00078   2.05420
    R5        2.05499  -0.00039   0.00035  -0.00115  -0.00080   2.05418
    A1        2.03792  -0.00043  -0.00317  -0.00050  -0.00367   2.03425
    A2        2.12251   0.00023   0.00153   0.00039   0.00192   2.12444
    A3        2.12276   0.00020   0.00163   0.00011   0.00174   2.12450
    A4        2.12251   0.00023   0.00153   0.00039   0.00192   2.12444
    A5        2.12276   0.00020   0.00163   0.00011   0.00174   2.12450
    A6        2.03792  -0.00043  -0.00317  -0.00050  -0.00367   2.03425
    D1        3.14159   0.00000   0.00000   0.00000   0.00000   3.14159
    D2        0.00000   0.00000   0.00000   0.00000   0.00000   0.00000
    D3        0.00000   0.00000   0.00000   0.00000   0.00000   0.00000
    D4        3.14159   0.00000   0.00000   0.00000   0.00000   3.14159
         Item               Value     Threshold  Converged?
 Maximum Force            0.000430     0.000450     YES
 RMS     Force            0.000278     0.000300     YES
 Maximum Displacement     0.003587     0.001800     NO 
 RMS     Displacement     0.001910     0.001200     NO 
 Predicted change in Energy=-2.989419D-06
 GradGradGradGradGradGradGradGradGradGradGradGradGradGradGradGradGradGrad

                          Input orientation:                          
 ---------------------------------------------------------------------
 Center     Atomic      Atomic             Coordinates (Angstroms)
 Number     Number       Type             X           Y           Z
 ---------------------------------------------------------------------
      1          6           0       -3.482014   -2.941346    0.000000
      2          1           0       -2.966819   -3.898542    0.000000
      3          1           0       -4.568542   -2.974294    0.000000
      4          6           0       -2.815189   -1.785818    0.000000
      5          1           0       -3.330384   -0.828622    0.000000
      6          1           0       -1.728661   -1.752870    0.000000
 ---------------------------------------------------------------------
                    Distance matrix (angstroms):
                    1          2          3          4          5
     1  C    0.000000
     2  H    1.087037   0.000000
     3  H    1.087028   1.849257   0.000000
     4  C    1.334129   2.118158   2.118188   0.000000
     5  H    2.118158   3.091373   2.477285   1.087037   0.000000
     6  H    2.118188   2.477285   3.091407   1.087028   1.849257
                    6
     6  H    0.000000
 Stoichiometry    C2H4
 Framework group  C2H[SGH(C2H4)]
 Deg. of freedom     5
 Full point group                 C2H     NOp   4
 Largest Abelian subgroup         C2H     NOp   4
 Largest concise Abelian subgroup C2      NOp   2
                         Standard orientation:                         
 ---------------------------------------------------------------------
 Center     Atomic      Atomic             Coordinates (Angstroms)
 Number     Number       Type             X           Y           Z
 ---------------------------------------------------------------------
      1          6           0        0.000000    0.667064    0.000000
      2          1           0        0.924651    1.238615    0.000000
      3          1           0       -0.924606    1.238670    0.000000
      4          6           0        0.000000   -0.667064    0.000000
      5          1           0       -0.924651   -1.238615    0.000000
      6          1           0        0.924606   -1.238670    0.000000
 ---------------------------------------------------------------------
 Rotational constants (GHZ):    146.6349500     29.9672823     24.8821937
 Standard basis: 6-31+G(d,p) (6D, 7F)
 There are    22 symmetry adapted basis functions of AG  symmetry.
 There are     7 symmetry adapted basis functions of BG  symmetry.
 There are     7 symmetry adapted basis functions of AU  symmetry.
 There are    22 symmetry adapted basis functions of BU  symmetry.
 Integral buffers will be    262144 words long.
 Raffenetti 2 integral format.
 Two-electron integral symmetry is turned on.
    58 basis functions,    92 primitive gaussians,    58 cartesian basis functions
     8 alpha electrons        8 beta electrons
       nuclear repulsion energy        33.3004286580 Hartrees.
 NAtoms=    6 NActive=    6 NUniq=    3 SFac= 3.00D+00 NAtFMM=   80 NAOKFM=F Big=F
 One-electron integrals computed using PRISM.
 NBasis=    58 RedAO= T  NBF=    22     7     7    22
 NBsUse=    58 1.00D-06 NBFU=    22     7     7    22
 Initial guess read from the read-write file.
 B after Tr=     0.000000    0.000000    0.000000
         Rot=    1.000000    0.000000    0.000000    0.000000 Ang=   0.00 deg.
 Initial guess orbital symmetries:
       Occupied  (AG) (BU) (AG) (BU) (BU) (AG) (AG) (AU)
       Virtual   (BG) (AG) (BU) (BU) (AU) (AG) (AG) (BG) (BU) (AG)
                 (BU) (BU) (AG) (BU) (AG) (BU) (AU) (BG) (BU) (AG)
                 (BU) (AG) (AG) (BU) (BU) (AG) (BG) (AU) (AU) (AG)
                 (BU) (AG) (AG) (BU) (BG) (BU) (AU) (BG) (BU) (BG)
                 (AU) (AG) (AG) (BU) (AG) (BU) (BU) (AG) (AG) (BU)
 Requested convergence on RMS density matrix=1.00D-08 within 128 cycles.
 Requested convergence on MAX density matrix=1.00D-06.
 Requested convergence on             energy=1.00D-06.
 No special actions if energy rises.
 Keep R1 ints in memory in canonical form, NReq=2416652.
 SCF Done:  E(RB3LYP) =  -78.5996456168     A.U. after    9 cycles
             Convg  =    0.7772D-08             -V/T =  2.0109
 Calling FoFJK, ICntrl=      2127 FMM=F ISym2X=1 I1Cent= 0 IOpClX= 0 NMat=1 NMatS=1 NMatT=0.
 ***** Axes restored to original set *****
 -------------------------------------------------------------------
 Center     Atomic                   Forces (Hartrees/Bohr)
 Number     Number              X              Y              Z
 -------------------------------------------------------------------
      1        6          -0.000050169   -0.000114444    0.000000000
      2        1          -0.000044350    0.000055801    0.000000000
      3        1           0.000065385   -0.000006214    0.000000000
      4        6           0.000050169    0.000114444    0.000000000
      5        1           0.000044350   -0.000055801    0.000000000
      6        1          -0.000065385    0.000006214    0.000000000
 -------------------------------------------------------------------
 Cartesian Forces:  Max     0.000114444 RMS     0.000052714

 GradGradGradGradGradGradGradGradGradGradGradGradGradGradGradGradGradGrad
 Berny optimization.
 Using GEDIIS/GDIIS optimizer.
 Internal  Forces:  Max     0.000070736 RMS     0.000040026
 Search for a local minimum.
 Step number   4 out of a maximum of   25
 All quantities printed in internal units (Hartrees-Bohrs-Radians)
 Mixed Optimization -- En-DIIS/RFO-DIIS
 Swaping is turned off.
 Update second derivatives using D2CorX and points    1    2    3    4
 DE= -3.15D-06 DEPred=-2.99D-06 R= 1.06D+00
 SS=  1.41D+00  RLast= 6.57D-03 DXNew= 5.0454D-01 1.9700D-02
 Trust test= 1.06D+00 RLast= 6.57D-03 DXMaxT set to 3.00D-01
 The second derivative matrix:
                          R1        R2        R3        R4        R5
           R1           0.37235
           R2           0.00060   0.37350
           R3          -0.00305  -0.00397   0.54561
           R4           0.00005   0.00060  -0.00305   0.37235
           R5           0.00060   0.00120  -0.00397   0.00060   0.37350
           A1           0.00216   0.00239  -0.01507   0.00216   0.00239
           A2          -0.00099  -0.00112   0.00760  -0.00099  -0.00112
           A3          -0.00118  -0.00127   0.00747  -0.00118  -0.00127
           A4          -0.00099  -0.00112   0.00760  -0.00099  -0.00112
           A5          -0.00118  -0.00127   0.00747  -0.00118  -0.00127
           A6           0.00216   0.00239  -0.01507   0.00216   0.00239
           D1           0.00000   0.00000   0.00000   0.00000   0.00000
           D2           0.00000   0.00000   0.00000   0.00000   0.00000
           D3           0.00000   0.00000   0.00000   0.00000   0.00000
           D4           0.00000   0.00000   0.00000   0.00000   0.00000
                          A1        A2        A3        A4        A5
           A1           0.14441
           A2           0.00786   0.15603
           A3           0.00774  -0.00389   0.15615
           A4           0.00786  -0.00397  -0.00389   0.15603
           A5           0.00774  -0.00389  -0.00385  -0.00389   0.15615
           A6          -0.01559   0.00786   0.00774   0.00786   0.00774
           D1           0.00000   0.00000   0.00000   0.00000   0.00000
           D2           0.00000   0.00000   0.00000   0.00000   0.00000
           D3           0.00000   0.00000   0.00000   0.00000   0.00000
           D4           0.00000   0.00000   0.00000   0.00000   0.00000
                          A6        D1        D2        D3        D4
           A6           0.14441
           D1           0.00000   0.02681
           D2           0.00000   0.00000   0.02681
           D3           0.00000   0.00000   0.00000   0.02681
           D4           0.00000   0.00000   0.00000   0.00000   0.02681
     Eigenvalues ---    0.02681   0.02681   0.02681   0.11143   0.15997
     Eigenvalues ---    0.16000   0.16000   0.37189   0.37230   0.37230
     Eigenvalues ---    0.37508   0.547501000.000001000.000001000.00000
 En-DIIS/RFO-DIIS IScMMF=        0 using points:     4    3
 RFO step:  Lambda=-3.80035418D-08.
 DIIS coeffs:      1.06061     -0.06061
 Iteration  1 RMS(Cart)=  0.00011056 RMS(Int)=  0.00000000
 Iteration  2 RMS(Cart)=  0.00000000 RMS(Int)=  0.00000000
 ClnCor:  largest displacement from symmetrization is 8.84D-14 for atom     6.
 Variable       Old X    -DE/DX   Delta X   Delta X   Delta X     New X
                                  (DIIS)     (GDIIS)  (Total)
    R1        2.05420  -0.00007  -0.00005  -0.00014  -0.00019   2.05402
    R2        2.05418  -0.00007  -0.00005  -0.00012  -0.00017   2.05401
    R3        2.52114   0.00007  -0.00003   0.00014   0.00012   2.52125
    R4        2.05420  -0.00007  -0.00005  -0.00014  -0.00019   2.05402
    R5        2.05418  -0.00007  -0.00005  -0.00012  -0.00017   2.05401
    A1        2.03425  -0.00001  -0.00022   0.00013  -0.00010   2.03415
    A2        2.12444   0.00001   0.00012  -0.00004   0.00008   2.12451
    A3        2.12450   0.00000   0.00011  -0.00009   0.00002   2.12452
    A4        2.12444   0.00001   0.00012  -0.00004   0.00008   2.12451
    A5        2.12450   0.00000   0.00011  -0.00009   0.00002   2.12452
    A6        2.03425  -0.00001  -0.00022   0.00013  -0.00010   2.03415
    D1        3.14159   0.00000   0.00000   0.00000   0.00000   3.14159
    D2        0.00000   0.00000   0.00000   0.00000   0.00000   0.00000
    D3        0.00000   0.00000   0.00000   0.00000   0.00000   0.00000
    D4        3.14159   0.00000   0.00000   0.00000   0.00000   3.14159
         Item               Value     Threshold  Converged?
 Maximum Force            0.000071     0.000450     YES
 RMS     Force            0.000040     0.000300     YES
 Maximum Displacement     0.000203     0.001800     YES
 RMS     Displacement     0.000111     0.001200     YES
 Predicted change in Energy=-3.054641D-08
 Optimization completed.
    -- Stationary point found.
                           ----------------------------
                           !   Optimized Parameters   !
                           ! (Angstroms and Degrees)  !
 --------------------------                            --------------------------
 ! Name  Definition              Value          Derivative Info.                !
 --------------------------------------------------------------------------------
 ! R1    R(1,2)                  1.087          -DE/DX =   -0.0001              !
 ! R2    R(1,3)                  1.087          -DE/DX =   -0.0001              !
 ! R3    R(1,4)                  1.3341         -DE/DX =    0.0001              !
 ! R4    R(4,5)                  1.087          -DE/DX =   -0.0001              !
 ! R5    R(4,6)                  1.087          -DE/DX =   -0.0001              !
 ! A1    A(2,1,3)              116.5537         -DE/DX =    0.0                 !
 ! A2    A(2,1,4)              121.7213         -DE/DX =    0.0                 !
 ! A3    A(3,1,4)              121.725          -DE/DX =    0.0                 !
 ! A4    A(1,4,5)              121.7213         -DE/DX =    0.0                 !
 ! A5    A(1,4,6)              121.725          -DE/DX =    0.0                 !
 ! A6    A(5,4,6)              116.5537         -DE/DX =    0.0                 !
 ! D1    D(2,1,4,5)            180.0            -DE/DX =    0.0                 !
 ! D2    D(2,1,4,6)              0.0            -DE/DX =    0.0                 !
 ! D3    D(3,1,4,5)              0.0            -DE/DX =    0.0                 !
 ! D4    D(3,1,4,6)            180.0            -DE/DX =    0.0                 !
 --------------------------------------------------------------------------------
 GradGradGradGradGradGradGradGradGradGradGradGradGradGradGradGradGradGrad

                          Input orientation:                          
 ---------------------------------------------------------------------
 Center     Atomic      Atomic             Coordinates (Angstroms)
 Number     Number       Type             X           Y           Z
 ---------------------------------------------------------------------
      1          6           0       -3.482014   -2.941346    0.000000
      2          1           0       -2.966819   -3.898542    0.000000
      3          1           0       -4.568542   -2.974294    0.000000
      4          6           0       -2.815189   -1.785818    0.000000
      5          1           0       -3.330384   -0.828622    0.000000
      6          1           0       -1.728661   -1.752870    0.000000
 ---------------------------------------------------------------------
                    Distance matrix (angstroms):
                    1          2          3          4          5
     1  C    0.000000
     2  H    1.087037   0.000000
     3  H    1.087028   1.849257   0.000000
     4  C    1.334129   2.118158   2.118188   0.000000
     5  H    2.118158   3.091373   2.477285   1.087037   0.000000
     6  H    2.118188   2.477285   3.091407   1.087028   1.849257
                    6
     6  H    0.000000
 Stoichiometry    C2H4
 Framework group  C2H[SGH(C2H4)]
 Deg. of freedom     5
 Full point group                 C2H     NOp   4
 Largest Abelian subgroup         C2H     NOp   4
 Largest concise Abelian subgroup C2      NOp   2
                         Standard orientation:                         
 ---------------------------------------------------------------------
 Center     Atomic      Atomic             Coordinates (Angstroms)
 Number     Number       Type             X           Y           Z
 ---------------------------------------------------------------------
      1          6           0        0.000000    0.667064    0.000000
      2          1           0        0.924651    1.238615    0.000000
      3          1           0       -0.924606    1.238670    0.000000
      4          6           0        0.000000   -0.667064    0.000000
      5          1           0       -0.924651   -1.238615    0.000000
      6          1           0        0.924606   -1.238670    0.000000
 ---------------------------------------------------------------------
 Rotational constants (GHZ):    146.6349500     29.9672823     24.8821937

 **********************************************************************

            Population analysis using the SCF density.

 **********************************************************************

 Orbital symmetries:
       Occupied  (AG) (BU) (AG) (BU) (BU) (AG) (AG) (AU)
       Virtual   (BG) (AG) (BU) (BU) (AU) (AG) (AG) (BG) (BU) (AG)
                 (BU) (BU) (AG) (BU) (AG) (BU) (AU) (BG) (BU) (AG)
                 (BU) (AG) (AG) (BU) (BU) (AG) (BG) (AU) (AU) (AG)
                 (BU) (AG) (AG) (BU) (BG) (BU) (AU) (BG) (BU) (BG)
                 (AU) (AG) (AG) (BU) (AG) (BU) (BU) (AG) (AG) (BU)
 The electronic state is 1-AG.
 Alpha  occ. eigenvalues --  -10.19576 -10.19489  -0.76514  -0.58527  -0.47296
 Alpha  occ. eigenvalues --   -0.42512  -0.36074  -0.27828
 Alpha virt. eigenvalues --   -0.00952   0.02465   0.03246   0.04667   0.06917
 Alpha virt. eigenvalues --    0.08644   0.08718   0.12834   0.15736   0.18045
 Alpha virt. eigenvalues --    0.19184   0.24816   0.34584   0.35063   0.56804
 Alpha virt. eigenvalues --    0.64766   0.67373   0.72066   0.76142   0.81836
 Alpha virt. eigenvalues --    0.89049   0.91837   0.95365   0.99490   1.16407
 Alpha virt. eigenvalues --    1.19051   1.37576   1.37951   1.51908   1.84223
 Alpha virt. eigenvalues --    1.91213   1.98108   2.03209   2.05649   2.13592
 Alpha virt. eigenvalues --    2.21928   2.36030   2.43893   2.52135   2.60895
 Alpha virt. eigenvalues --    2.66891   2.71299   2.75078   3.02197   3.17993
 Alpha virt. eigenvalues --    3.33497   3.47141   3.76372   4.23033   4.51304
          Condensed to atoms (all electrons):
              1          2          3          4          5          6
     1  C    4.846001   0.387836   0.387839   0.704733  -0.027290  -0.027289
     2  H    0.387836   0.543877  -0.036463  -0.027290   0.004394  -0.008268
     3  H    0.387839  -0.036463   0.543870  -0.027289  -0.008268   0.004394
     4  C    0.704733  -0.027290  -0.027289   4.846001   0.387836   0.387839
     5  H   -0.027290   0.004394  -0.008268   0.387836   0.543877  -0.036463
     6  H   -0.027289  -0.008268   0.004394   0.387839  -0.036463   0.543870
 Mulliken atomic charges:
              1
     1  C   -0.271830
     2  H    0.135913
     3  H    0.135917
     4  C   -0.271830
     5  H    0.135913
     6  H    0.135917
 Sum of Mulliken atomic charges =   0.00000
 Mulliken charges with hydrogens summed into heavy atoms:
              1
     1  C    0.000000
     4  C    0.000000
 Sum of Mulliken charges with hydrogens summed into heavy atoms =   0.00000
 Electronic spatial extent (au):  <R**2>=             83.5650
 Charge=              0.0000 electrons
 Dipole moment (field-independent basis, Debye):
    X=              0.0000    Y=              0.0000    Z=              0.0000  Tot=              0.0000
 Quadrupole moment (field-independent basis, Debye-Ang):
   XX=            -12.4468   YY=            -12.4084   ZZ=            -15.9922
   XY=             -0.0001   XZ=              0.0000   YZ=              0.0000
 Traceless Quadrupole moment (field-independent basis, Debye-Ang):
   XX=              1.1690   YY=              1.2074   ZZ=             -2.3764
   XY=             -0.0001   XZ=              0.0000   YZ=              0.0000
 Octapole moment (field-independent basis, Debye-Ang**2):
  XXX=              0.0000  YYY=              0.0000  ZZZ=              0.0000  XYY=              0.0000
  XXY=              0.0000  XXZ=              0.0000  XZZ=              0.0000  YZZ=              0.0000
  YYZ=              0.0000  XYZ=              0.0000
 Hexadecapole moment (field-independent basis, Debye-Ang**3):
 XXXX=            -28.5031 YYYY=            -70.9833 ZZZZ=            -22.2880 XXXY=             -0.0001
 XXXZ=              0.0000 YYYX=             -0.0008 YYYZ=              0.0000 ZZZX=              0.0000
 ZZZY=              0.0000 XXYY=            -14.1651 XXZZ=             -9.1002 YYZZ=            -16.5823
 XXYZ=              0.0000 YYXZ=              0.0000 ZZXY=             -0.0001
 N-N= 3.330042865801D+01 E-N=-2.478429057189D+02  KE= 7.774996763150D+01
 Symmetry AG   KE= 3.949222419188D+01
 Symmetry BG   KE= 7.644855037669D-32
 Symmetry AU   KE= 2.029825797242D+00
 Symmetry BU   KE= 3.622791764238D+01
 1|1|UNPC-DESKTOP-319GPER|FOpt|RB3LYP|6-31+G(d,p)|C2H4|SAGAD|17-Jan-202
 1|0||# opt freq=noraman 6-31+g(d,p) b3lyp||Ethene B3lyp||0,1|C,-3.4820
 136537,-2.9413455306,0.|H,-2.966818645,-3.8985416032,0.|H,-4.568541814
 6,-2.9742935532,0.|C,-2.8151892563,-1.7858177594,0.|H,-3.330384265,-0.
 8286216868,0.|H,-1.7286610954,-1.7528697368,0.||Version=IA32W-G09RevA.
 02|State=1-AG|HF=-78.5996456|RMSD=7.772e-009|RMSF=5.271e-005|Dipole=0.
 ,0.,0.|Quadrupole=0.876357,0.8904658,-1.7668228,0.0124158,0.,0.|PG=C02
 H [SGH(C2H4)]||@


       THE DEATH-KNELL OF THE ATOM

 SO THE ATOMS IN TURN, WE NOW CLEARLY DISCERN,
 FLY TO BITS WITH THE UTMOST FACILITY;
 THEY WEND ON THEIR WAY, AND, IN SPLITTING, DISPLAY
 AN ABSOLUTE LACK OF STABILITY.

          SIR WM. RAMSAY, 1905
 Job cpu time:  0 days  0 hours  0 minutes  6.0 seconds.
 File lengths (MBytes):  RWF=      5 Int=      0 D2E=      0 Chk=      1 Scr=      1
 Normal termination of Gaussian 09 at Sun Jan 17 13:02:01 2021.
 Link1:  Proceeding to internal job step number  2.
 ----------------------------------------------------------------------
 #N Geom=AllCheck Guess=TCheck SCRF=Check GenChk RB3LYP/6-31+G(d,p) Fre
 q
 ----------------------------------------------------------------------
 1/10=4,29=7,30=1,38=1,40=1/1,3;
 2/12=2,40=1/2;
 3/5=1,6=6,7=111,11=2,14=-4,16=1,25=1,30=1,70=2,71=2,74=-5,116=1/1,2,3;
 4/5=101/1;
 5/5=2,98=1/2;
 8/6=4,10=90,11=11/1;
 11/6=1,8=1,9=11,15=111,16=1/1,2,10;
 10/6=1/2;
 6/7=2,8=2,9=2,10=2,18=1,28=1/1;
 7/8=1,10=1,25=1/1,2,3,16;
 1/10=4,30=1/3;
 99//99;
 ------------
 Ethene B3lyp
 ------------
 Redundant internal coordinates taken from checkpoint file:
 D:\Documents\rayGit\FQ\quimicaComputacional\p3Eteno\reactivos\etheneB3lyp.chk
 Charge =  0 Multiplicity = 1
 C,0,-3.4820136537,-2.9413455306,0.
 H,0,-2.966818645,-3.8985416032,0.
 H,0,-4.5685418146,-2.9742935532,0.
 C,0,-2.8151892563,-1.7858177594,0.
 H,0,-3.330384265,-0.8286216868,0.
 H,0,-1.7286610954,-1.7528697368,0.
 Recover connectivity data from disk.

 GradGradGradGradGradGradGradGradGradGradGradGradGradGradGradGradGradGrad
 Berny optimization.
 Initialization pass.
                           ----------------------------
                           !    Initial Parameters    !
                           ! (Angstroms and Degrees)  !
 --------------------------                            --------------------------
 ! Name  Definition              Value          Derivative Info.                !
 --------------------------------------------------------------------------------
 ! R1    R(1,2)                  1.087          calculate D2E/DX2 analytically  !
 ! R2    R(1,3)                  1.087          calculate D2E/DX2 analytically  !
 ! R3    R(1,4)                  1.3341         calculate D2E/DX2 analytically  !
 ! R4    R(4,5)                  1.087          calculate D2E/DX2 analytically  !
 ! R5    R(4,6)                  1.087          calculate D2E/DX2 analytically  !
 ! A1    A(2,1,3)              116.5537         calculate D2E/DX2 analytically  !
 ! A2    A(2,1,4)              121.7213         calculate D2E/DX2 analytically  !
 ! A3    A(3,1,4)              121.725          calculate D2E/DX2 analytically  !
 ! A4    A(1,4,5)              121.7213         calculate D2E/DX2 analytically  !
 ! A5    A(1,4,6)              121.725          calculate D2E/DX2 analytically  !
 ! A6    A(5,4,6)              116.5537         calculate D2E/DX2 analytically  !
 ! D1    D(2,1,4,5)            180.0            calculate D2E/DX2 analytically  !
 ! D2    D(2,1,4,6)              0.0            calculate D2E/DX2 analytically  !
 ! D3    D(3,1,4,5)              0.0            calculate D2E/DX2 analytically  !
 ! D4    D(3,1,4,6)            180.0            calculate D2E/DX2 analytically  !
 --------------------------------------------------------------------------------
 Trust Radius=3.00D-01 FncErr=1.00D-07 GrdErr=1.00D-07
 Number of steps in this run=   2 maximum allowed number of steps=   2.
 GradGradGradGradGradGradGradGradGradGradGradGradGradGradGradGradGradGrad

                          Input orientation:                          
 ---------------------------------------------------------------------
 Center     Atomic      Atomic             Coordinates (Angstroms)
 Number     Number       Type             X           Y           Z
 ---------------------------------------------------------------------
      1          6           0       -3.482014   -2.941346    0.000000
      2          1           0       -2.966819   -3.898542    0.000000
      3          1           0       -4.568542   -2.974294    0.000000
      4          6           0       -2.815189   -1.785818    0.000000
      5          1           0       -3.330384   -0.828622    0.000000
      6          1           0       -1.728661   -1.752870    0.000000
 ---------------------------------------------------------------------
                    Distance matrix (angstroms):
                    1          2          3          4          5
     1  C    0.000000
     2  H    1.087037   0.000000
     3  H    1.087028   1.849257   0.000000
     4  C    1.334129   2.118158   2.118188   0.000000
     5  H    2.118158   3.091373   2.477285   1.087037   0.000000
     6  H    2.118188   2.477285   3.091407   1.087028   1.849257
                    6
     6  H    0.000000
 Stoichiometry    C2H4
 Framework group  C2H[SGH(C2H4)]
 Deg. of freedom     5
 Full point group                 C2H     NOp   4
 Largest Abelian subgroup         C2H     NOp   4
 Largest concise Abelian subgroup C2      NOp   2
                         Standard orientation:                         
 ---------------------------------------------------------------------
 Center     Atomic      Atomic             Coordinates (Angstroms)
 Number     Number       Type             X           Y           Z
 ---------------------------------------------------------------------
      1          6           0        0.000000    0.667064    0.000000
      2          1           0        0.924651    1.238615    0.000000
      3          1           0       -0.924606    1.238670    0.000000
      4          6           0        0.000000   -0.667064    0.000000
      5          1           0       -0.924651   -1.238615    0.000000
      6          1           0        0.924606   -1.238670    0.000000
 ---------------------------------------------------------------------
 Rotational constants (GHZ):    146.6349500     29.9672823     24.8821937
 Standard basis: 6-31+G(d,p) (6D, 7F)
 There are    22 symmetry adapted basis functions of AG  symmetry.
 There are     7 symmetry adapted basis functions of BG  symmetry.
 There are     7 symmetry adapted basis functions of AU  symmetry.
 There are    22 symmetry adapted basis functions of BU  symmetry.
 Integral buffers will be    262144 words long.
 Raffenetti 2 integral format.
 Two-electron integral symmetry is turned on.
    58 basis functions,    92 primitive gaussians,    58 cartesian basis functions
     8 alpha electrons        8 beta electrons
       nuclear repulsion energy        33.3004286580 Hartrees.
 NAtoms=    6 NActive=    6 NUniq=    3 SFac= 3.00D+00 NAtFMM=   80 NAOKFM=F Big=F
 One-electron integrals computed using PRISM.
 NBasis=    58 RedAO= T  NBF=    22     7     7    22
 NBsUse=    58 1.00D-06 NBFU=    22     7     7    22
 Initial guess read from the checkpoint file:  D:\Documents\rayGit\FQ\quimicaComp
 utacional\p3Eteno\reactivos\etheneB3lyp.chk
 B after Tr=     0.000000    0.000000    0.000000
         Rot=    1.000000    0.000000    0.000000    0.000000 Ang=   0.00 deg.
 Initial guess orbital symmetries:
       Occupied  (AG) (BU) (AG) (BU) (BU) (AG) (AG) (AU)
       Virtual   (BG) (AG) (BU) (BU) (AU) (AG) (AG) (BG) (BU) (AG)
                 (BU) (BU) (AG) (BU) (AG) (BU) (AU) (BG) (BU) (AG)
                 (BU) (AG) (AG) (BU) (BU) (AG) (BG) (AU) (AU) (AG)
                 (BU) (AG) (AG) (BU) (BG) (BU) (AU) (BG) (BU) (BG)
                 (AU) (AG) (AG) (BU) (AG) (BU) (BU) (AG) (AG) (BU)
 Requested convergence on RMS density matrix=1.00D-08 within 128 cycles.
 Requested convergence on MAX density matrix=1.00D-06.
 Requested convergence on             energy=1.00D-06.
 No special actions if energy rises.
 Keep R1 ints in memory in canonical form, NReq=2416652.
 SCF Done:  E(RB3LYP) =  -78.5996456168     A.U. after    1 cycles
             Convg  =    0.9176D-09             -V/T =  2.0109
 Range of M.O.s used for correlation:     1    58
 NBasis=    58 NAE=     8 NBE=     8 NFC=     0 NFV=     0
 NROrb=     58 NOA=     8 NOB=     8 NVA=    50 NVB=    50

 **** Warning!!: The largest alpha MO coefficient is  0.35867027D+02

 Symmetrizing basis deriv contribution to polar:
 IMax=3 JMax=2 DiffMx= 0.00D+00
 G2DrvN: will do     7 centers at a time, making    1 passes doing MaxLOS=2.
 Calling FoFCou, ICntrl=  3107 FMM=F I1Cent=   0 AccDes= 0.00D+00.
 FoFDir/FoFCou used for L=0 through L=2.
 End of G2Drv Frequency-dependent properties file   721 does not exist.
 End of G2Drv Frequency-dependent properties file   722 does not exist.
          IDoAtm=111111
          Differentiating once with respect to electric field.
                with respect to dipole field.
          Differentiating once with respect to nuclear coordinates.
          Keep R1 ints in memory in canonical form, NReq=2286014.
          There are    12 degrees of freedom in the 1st order CPHF.  IDoFFX=4.
     12 vectors produced by pass  0 Test12= 3.33D-15 8.33D-09 XBig12= 3.69D+01 5.23D+00.
 AX will form    12 AO Fock derivatives at one time.
     12 vectors produced by pass  1 Test12= 3.33D-15 8.33D-09 XBig12= 8.62D+00 1.30D+00.
     12 vectors produced by pass  2 Test12= 3.33D-15 8.33D-09 XBig12= 1.95D-01 1.76D-01.
     12 vectors produced by pass  3 Test12= 3.33D-15 8.33D-09 XBig12= 8.74D-04 8.91D-03.
     12 vectors produced by pass  4 Test12= 3.33D-15 8.33D-09 XBig12= 5.19D-06 8.10D-04.
      6 vectors produced by pass  5 Test12= 3.33D-15 8.33D-09 XBig12= 7.29D-09 2.42D-05.
      3 vectors produced by pass  6 Test12= 3.33D-15 8.33D-09 XBig12= 1.11D-11 1.06D-06.
      1 vectors produced by pass  7 Test12= 3.33D-15 8.33D-09 XBig12= 8.95D-15 2.21D-08.
 Inverted reduced A of dimension    70 with in-core refinement.
 Isotropic polarizability for W=    0.000000       24.81 Bohr**3.
 End of Minotr Frequency-dependent properties file   721 does not exist.
 End of Minotr Frequency-dependent properties file   722 does not exist.

 **********************************************************************

            Population analysis using the SCF density.

 **********************************************************************

 Orbital symmetries:
       Occupied  (AG) (BU) (AG) (BU) (BU) (AG) (AG) (AU)
       Virtual   (BG) (AG) (BU) (BU) (AU) (AG) (AG) (BG) (BU) (AG)
                 (BU) (BU) (AG) (BU) (AG) (BU) (AU) (BG) (BU) (AG)
                 (BU) (AG) (AG) (BU) (BU) (AG) (BG) (AU) (AU) (AG)
                 (BU) (AG) (AG) (BU) (BG) (BU) (AU) (BG) (BU) (BG)
                 (AU) (AG) (AG) (BU) (AG) (BU) (BU) (AG) (AG) (BU)
 The electronic state is 1-AG.
 Alpha  occ. eigenvalues --  -10.19576 -10.19489  -0.76514  -0.58527  -0.47296
 Alpha  occ. eigenvalues --   -0.42512  -0.36074  -0.27828
 Alpha virt. eigenvalues --   -0.00952   0.02465   0.03246   0.04667   0.06917
 Alpha virt. eigenvalues --    0.08644   0.08718   0.12834   0.15736   0.18045
 Alpha virt. eigenvalues --    0.19184   0.24816   0.34584   0.35063   0.56804
 Alpha virt. eigenvalues --    0.64766   0.67373   0.72066   0.76142   0.81836
 Alpha virt. eigenvalues --    0.89049   0.91837   0.95365   0.99490   1.16407
 Alpha virt. eigenvalues --    1.19051   1.37576   1.37951   1.51908   1.84223
 Alpha virt. eigenvalues --    1.91213   1.98108   2.03209   2.05649   2.13592
 Alpha virt. eigenvalues --    2.21928   2.36030   2.43893   2.52135   2.60895
 Alpha virt. eigenvalues --    2.66891   2.71299   2.75078   3.02197   3.17993
 Alpha virt. eigenvalues --    3.33496   3.47141   3.76372   4.23033   4.51304
          Condensed to atoms (all electrons):
              1          2          3          4          5          6
     1  C    4.846001   0.387836   0.387839   0.704733  -0.027290  -0.027289
     2  H    0.387836   0.543877  -0.036463  -0.027290   0.004394  -0.008268
     3  H    0.387839  -0.036463   0.543870  -0.027289  -0.008268   0.004394
     4  C    0.704733  -0.027290  -0.027289   4.846001   0.387836   0.387839
     5  H   -0.027290   0.004394  -0.008268   0.387836   0.543877  -0.036463
     6  H   -0.027289  -0.008268   0.004394   0.387839  -0.036463   0.543870
 Mulliken atomic charges:
              1
     1  C   -0.271830
     2  H    0.135913
     3  H    0.135917
     4  C   -0.271830
     5  H    0.135913
     6  H    0.135917
 Sum of Mulliken atomic charges =   0.00000
 Mulliken charges with hydrogens summed into heavy atoms:
              1
     1  C    0.000000
     4  C    0.000000
 Sum of Mulliken charges with hydrogens summed into heavy atoms =   0.00000
 APT atomic charges:
              1
     1  C   -0.069783
     2  H    0.034885
     3  H    0.034897
     4  C   -0.069783
     5  H    0.034885
     6  H    0.034897
 Sum of APT charges=   0.00000
 APT Atomic charges with hydrogens summed into heavy atoms:
              1
     1  C    0.000000
     2  H    0.000000
     3  H    0.000000
     4  C    0.000000
     5  H    0.000000
     6  H    0.000000
 Sum of APT charges=   0.00000
 Electronic spatial extent (au):  <R**2>=             83.5650
 Charge=              0.0000 electrons
 Dipole moment (field-independent basis, Debye):
    X=              0.0000    Y=              0.0000    Z=              0.0000  Tot=              0.0000
 Quadrupole moment (field-independent basis, Debye-Ang):
   XX=            -12.4468   YY=            -12.4084   ZZ=            -15.9922
   XY=             -0.0001   XZ=              0.0000   YZ=              0.0000
 Traceless Quadrupole moment (field-independent basis, Debye-Ang):
   XX=              1.1690   YY=              1.2074   ZZ=             -2.3764
   XY=             -0.0001   XZ=              0.0000   YZ=              0.0000
 Octapole moment (field-independent basis, Debye-Ang**2):
  XXX=              0.0000  YYY=              0.0000  ZZZ=              0.0000  XYY=              0.0000
  XXY=              0.0000  XXZ=              0.0000  XZZ=              0.0000  YZZ=              0.0000
  YYZ=              0.0000  XYZ=              0.0000
 Hexadecapole moment (field-independent basis, Debye-Ang**3):
 XXXX=            -28.5031 YYYY=            -70.9833 ZZZZ=            -22.2880 XXXY=             -0.0001
 XXXZ=              0.0000 YYYX=             -0.0008 YYYZ=              0.0000 ZZZX=              0.0000
 ZZZY=              0.0000 XXYY=            -14.1651 XXZZ=             -9.1002 YYZZ=            -16.5823
 XXYZ=              0.0000 YYXZ=              0.0000 ZZXY=             -0.0001
 N-N= 3.330042865801D+01 E-N=-2.478429064877D+02  KE= 7.774996791151D+01
 Symmetry AG   KE= 3.949222429474D+01
 Symmetry BG   KE= 5.529049844851D-32
 Symmetry AU   KE= 2.029825887282D+00
 Symmetry BU   KE= 3.622791772949D+01
  Exact polarizability:  21.207   0.000  35.119   0.000   0.000  18.114
 Approx polarizability:  26.140   0.000  51.944   0.000   0.000  21.477
 Calling FoFJK, ICntrl=    100127 FMM=F ISym2X=1 I1Cent= 0 IOpClX= 0 NMat=1 NMatS=1 NMatT=0.
 Full mass-weighted force constant matrix:
 Low frequencies ---  -32.6446   -0.0009   -0.0006    0.0004    9.9501   21.4696
 Low frequencies ---  833.8466  967.5410  974.5386
 Diagonal vibrational polarizability:
        0.1059696       0.1442669       3.4009762
 Harmonic frequencies (cm**-1), IR intensities (KM/Mole), Raman scattering
 activities (A**4/AMU), depolarization ratios for plane and unpolarized
 incident light, reduced masses (AMU), force constants (mDyne/A),
 and normal coordinates:
                     1                      2                      3
                    BU                     BG                     AU
 Frequencies --   833.8466               967.5410               974.5386
 Red. masses --     1.0425                 1.5177                 1.1607
 Frc consts  --     0.4271                 0.8371                 0.6495
 IR Inten    --     0.9380                 0.0000               120.0241
  Atom  AN      X      Y      Z        X      Y      Z        X      Y      Z
     1   6    -0.04   0.00   0.00     0.00   0.00   0.15     0.00   0.00  -0.08
     2   1     0.24  -0.44   0.00     0.00   0.00  -0.49     0.00   0.00   0.50
     3   1     0.24   0.44   0.00     0.00   0.00  -0.49     0.00   0.00   0.50
     4   6    -0.04   0.00   0.00     0.00   0.00  -0.15     0.00   0.00  -0.08
     5   1     0.24  -0.44   0.00     0.00   0.00   0.49     0.00   0.00   0.50
     6   1     0.24   0.44   0.00     0.00   0.00   0.49     0.00   0.00   0.50
                     4                      5                      6
                    AU                     AG                     AG
 Frequencies --  1054.7153              1237.5524              1380.7074
 Red. masses --     1.0078                 1.5234                 1.2316
 Frc consts  --     0.6606                 1.3746                 1.3833
 IR Inten    --     0.0000                 0.0000                 0.0000
  Atom  AN      X      Y      Z        X      Y      Z        X      Y      Z
     1   6     0.00   0.00   0.00     0.15   0.00   0.00     0.00   0.10   0.00
     2   1     0.00   0.00   0.50    -0.14   0.47   0.00    -0.19   0.46   0.00
     3   1     0.00   0.00  -0.50    -0.14  -0.47   0.00     0.19   0.45   0.00
     4   6     0.00   0.00   0.00    -0.15   0.00   0.00     0.00  -0.10   0.00
     5   1     0.00   0.00   0.50     0.14  -0.47   0.00     0.19  -0.46   0.00
     6   1     0.00   0.00  -0.50     0.14   0.47   0.00    -0.19  -0.45   0.00
                     7                      8                      9
                    BU                     AG                     BU
 Frequencies --  1476.0811              1696.0450              3142.0279
 Red. masses --     1.1121                 3.0856                 1.0476
 Frc consts  --     1.4276                 5.2295                 6.0935
 IR Inten    --     7.8045                 0.0000                17.5613
  Atom  AN      X      Y      Z        X      Y      Z        X      Y      Z
     1   6     0.00   0.07   0.00     0.00   0.31   0.00     0.00  -0.04   0.00
     2   1     0.28  -0.41   0.00     0.38  -0.24   0.00     0.43   0.25   0.00
     3   1    -0.28  -0.41   0.00    -0.38  -0.24   0.00    -0.43   0.25   0.00
     4   6     0.00   0.07   0.00     0.00  -0.31   0.00     0.00  -0.04   0.00
     5   1     0.28  -0.41   0.00    -0.38   0.24   0.00     0.43   0.25   0.00
     6   1    -0.28  -0.41   0.00     0.38   0.24   0.00    -0.43   0.25   0.00
                    10                     11                     12
                    AG                     AG                     BU
 Frequencies --  3156.6164              3217.3343              3244.2032
 Red. masses --     1.0733                 1.1148                 1.1179
 Frc consts  --     6.3009                 6.7989                 6.9322
 IR Inten    --     0.0000                 0.0000                27.2461
  Atom  AN      X      Y      Z        X      Y      Z        X      Y      Z
     1   6     0.00   0.05   0.00    -0.07   0.00   0.00     0.07   0.00   0.00
     2   1    -0.43  -0.26   0.00     0.42   0.26   0.00    -0.42  -0.26   0.00
     3   1     0.43  -0.26   0.00     0.42  -0.26   0.00    -0.42   0.26   0.00
     4   6     0.00  -0.05   0.00     0.07   0.00   0.00     0.07   0.00   0.00
     5   1     0.43   0.26   0.00    -0.42  -0.26   0.00    -0.42  -0.26   0.00
     6   1    -0.43   0.26   0.00    -0.42   0.26   0.00    -0.42   0.26   0.00

 -------------------
 - Thermochemistry -
 -------------------
 Temperature   298.150 Kelvin.  Pressure   1.00000 Atm.
 Atom     1 has atomic number  6 and mass  12.00000
 Atom     2 has atomic number  1 and mass   1.00783
 Atom     3 has atomic number  1 and mass   1.00783
 Atom     4 has atomic number  6 and mass  12.00000
 Atom     5 has atomic number  1 and mass   1.00783
 Atom     6 has atomic number  1 and mass   1.00783
 Molecular mass:    28.03130 amu.
 Principal axes and moments of inertia in atomic units:
                           1         2         3
     Eigenvalues --    12.30772  60.22372  72.53143
           X            0.00000   1.00000   0.00000
           Y            1.00000   0.00000   0.00000
           Z            0.00000   0.00000   1.00000
 This molecule is an asymmetric top.
 Rotational symmetry number  2.
 Rotational temperatures (Kelvin)      7.03736     1.43820     1.19416
 Rotational constants (GHZ):         146.63495    29.96728    24.88219
 Zero-point vibrational energy     133869.4 (Joules/Mol)
                                   31.99554 (Kcal/Mol)
 Vibrational temperatures:   1199.72  1392.07  1402.14  1517.50  1780.56
          (Kelvin)           1986.53  2123.75  2440.23  4520.67  4541.66
                             4629.02  4667.68
 
 Zero-point correction=                           0.050988 (Hartree/Particle)
 Thermal correction to Energy=                    0.054032
 Thermal correction to Enthalpy=                  0.054976
 Thermal correction to Gibbs Free Energy=         0.029455
 Sum of electronic and zero-point Energies=            -78.548657
 Sum of electronic and thermal Energies=               -78.545614
 Sum of electronic and thermal Enthalpies=             -78.544669
 Sum of electronic and thermal Free Energies=          -78.570191
 
                     E (Thermal)             CV                S
                      KCal/Mol        Cal/Mol-Kelvin    Cal/Mol-Kelvin
 Total                   33.906              8.113             53.715
 Electronic               0.000              0.000              0.000
 Translational            0.889              2.981             35.927
 Rotational               0.889              2.981             17.248
 Vibrational             32.128              2.151              0.540
                       Q            Log10(Q)             Ln(Q)
 Total Bot       0.283015D-13        -13.548191        -31.195862
 Total V=0       0.802931D+10          9.904678         22.806365
 Vib (Bot)       0.369690D-23        -23.432163        -53.954549
 Vib (V=0)       0.104883D+01          0.020706          0.047678
 Electronic      0.100000D+01          0.000000          0.000000
 Translational   0.583338D+07          6.765920         15.579107
 Rotational      0.131236D+04          3.118052          7.179580
 ***** Axes restored to original set *****
 -------------------------------------------------------------------
 Center     Atomic                   Forces (Hartrees/Bohr)
 Number     Number              X              Y              Z
 -------------------------------------------------------------------
      1        6          -0.000050178   -0.000114460    0.000000000
      2        1          -0.000044347    0.000055797    0.000000000
      3        1           0.000065380   -0.000006214    0.000000000
      4        6           0.000050178    0.000114460    0.000000000
      5        1           0.000044347   -0.000055797    0.000000000
      6        1          -0.000065380    0.000006214    0.000000000
 -------------------------------------------------------------------
 Cartesian Forces:  Max     0.000114460 RMS     0.000052718

 GradGradGradGradGradGradGradGradGradGradGradGradGradGradGradGradGradGrad
 Berny optimization.
 Internal  Forces:  Max     0.000070759 RMS     0.000040026
 Search for a local minimum.
 Step number   1 out of a maximum of    2
 All quantities printed in internal units (Hartrees-Bohrs-Radians)
 Second derivative matrix not updated -- analytic derivatives used.
 The second derivative matrix:
                          R1        R2        R3        R4        R5
           R1           0.35909
           R2           0.00203   0.35911
           R3           0.00654   0.00654   0.63282
           R4          -0.00054   0.00073   0.00654   0.35909
           R5           0.00073  -0.00054   0.00654   0.00203   0.35911
           A1           0.00679   0.00679  -0.02144  -0.00102  -0.00102
           A2           0.00472  -0.01150   0.01072   0.00440  -0.00338
           A3          -0.01151   0.00472   0.01072  -0.00338   0.00440
           A4           0.00440  -0.00338   0.01072   0.00472  -0.01150
           A5          -0.00338   0.00440   0.01072  -0.01151   0.00472
           A6          -0.00102  -0.00102  -0.02144   0.00679   0.00679
           D1           0.00000   0.00000   0.00000   0.00000   0.00000
           D2           0.00000   0.00000   0.00000   0.00000   0.00000
           D3           0.00000   0.00000   0.00000   0.00000   0.00000
           D4           0.00000   0.00000   0.00000   0.00000   0.00000
                          A1        A2        A3        A4        A5
           A1           0.07281
           A2          -0.03640   0.08138
           A3          -0.03640  -0.04498   0.08138
           A4          -0.00145   0.01021  -0.00876   0.08138
           A5          -0.00145  -0.00876   0.01021  -0.04498   0.08138
           A6           0.00290  -0.00145  -0.00145  -0.03640  -0.03640
           D1           0.00000   0.00000   0.00000   0.00000   0.00000
           D2           0.00000   0.00000   0.00000   0.00000   0.00000
           D3           0.00000   0.00000   0.00000   0.00000   0.00000
           D4           0.00000   0.00000   0.00000   0.00000   0.00000
                          A6        D1        D2        D3        D4
           A6           0.07281
           D1           0.00000   0.03174
           D2           0.00000   0.00809   0.02534
           D3           0.00000   0.00809  -0.00916   0.02534
           D4           0.00000  -0.01556   0.00809   0.00809   0.03174
     Eigenvalues ---    0.03236   0.03451   0.04730   0.10415   0.10710
     Eigenvalues ---    0.11044   0.14262   0.35851   0.35862   0.36124
     Eigenvalues ---    0.36164   0.636021000.000001000.000001000.00000
 Angle between quadratic step and forces=  16.63 degrees.
 Linear search not attempted -- first point.
 Iteration  1 RMS(Cart)=  0.00010997 RMS(Int)=  0.00000000
 Iteration  2 RMS(Cart)=  0.00000000 RMS(Int)=  0.00000000
 ClnCor:  largest displacement from symmetrization is 1.02D-13 for atom     6.
 Variable       Old X    -DE/DX   Delta X   Delta X   Delta X     New X
                                 (Linear)    (Quad)   (Total)
    R1        2.05420  -0.00007   0.00000  -0.00020  -0.00020   2.05401
    R2        2.05418  -0.00007   0.00000  -0.00018  -0.00018   2.05401
    R3        2.52114   0.00007   0.00000   0.00011   0.00011   2.52125
    R4        2.05420  -0.00007   0.00000  -0.00020  -0.00020   2.05401
    R5        2.05418  -0.00007   0.00000  -0.00018  -0.00018   2.05401
    A1        2.03425  -0.00001   0.00000  -0.00009  -0.00009   2.03416
    A2        2.12444   0.00001   0.00000   0.00008   0.00008   2.12451
    A3        2.12450   0.00000   0.00000   0.00001   0.00001   2.12451
    A4        2.12444   0.00001   0.00000   0.00008   0.00008   2.12451
    A5        2.12450   0.00000   0.00000   0.00001   0.00001   2.12451
    A6        2.03425  -0.00001   0.00000  -0.00009  -0.00009   2.03416
    D1        3.14159   0.00000   0.00000   0.00000   0.00000   3.14159
    D2        0.00000   0.00000   0.00000   0.00000   0.00000   0.00000
    D3        0.00000   0.00000   0.00000   0.00000   0.00000   0.00000
    D4        3.14159   0.00000   0.00000   0.00000   0.00000   3.14159
         Item               Value     Threshold  Converged?
 Maximum Force            0.000071     0.000450     YES
 RMS     Force            0.000040     0.000300     YES
 Maximum Displacement     0.000197     0.001800     YES
 RMS     Displacement     0.000110     0.001200     YES
 Predicted change in Energy=-3.142243D-08
 Optimization completed.
    -- Stationary point found.
                           ----------------------------
                           !   Optimized Parameters   !
                           ! (Angstroms and Degrees)  !
 --------------------------                            --------------------------
 ! Name  Definition              Value          Derivative Info.                !
 --------------------------------------------------------------------------------
 ! R1    R(1,2)                  1.087          -DE/DX =   -0.0001              !
 ! R2    R(1,3)                  1.087          -DE/DX =   -0.0001              !
 ! R3    R(1,4)                  1.3341         -DE/DX =    0.0001              !
 ! R4    R(4,5)                  1.087          -DE/DX =   -0.0001              !
 ! R5    R(4,6)                  1.087          -DE/DX =   -0.0001              !
 ! A1    A(2,1,3)              116.5537         -DE/DX =    0.0                 !
 ! A2    A(2,1,4)              121.7213         -DE/DX =    0.0                 !
 ! A3    A(3,1,4)              121.725          -DE/DX =    0.0                 !
 ! A4    A(1,4,5)              121.7213         -DE/DX =    0.0                 !
 ! A5    A(1,4,6)              121.725          -DE/DX =    0.0                 !
 ! A6    A(5,4,6)              116.5537         -DE/DX =    0.0                 !
 ! D1    D(2,1,4,5)            180.0            -DE/DX =    0.0                 !
 ! D2    D(2,1,4,6)              0.0            -DE/DX =    0.0                 !
 ! D3    D(3,1,4,5)              0.0            -DE/DX =    0.0                 !
 ! D4    D(3,1,4,6)            180.0            -DE/DX =    0.0                 !
 --------------------------------------------------------------------------------
 GradGradGradGradGradGradGradGradGradGradGradGradGradGradGradGradGradGrad

 1|1|UNPC-DESKTOP-319GPER|Freq|RB3LYP|6-31+G(d,p)|C2H4|SAGAD|17-Jan-202
 1|0||#N Geom=AllCheck Guess=TCheck SCRF=Check GenChk RB3LYP/6-31+G(d,p
 ) Freq||Ethene B3lyp||0,1|C,-3.4820136537,-2.9413455306,0.|H,-2.966818
 645,-3.8985416032,0.|H,-4.5685418146,-2.9742935532,0.|C,-2.8151892563,
 -1.7858177594,0.|H,-3.330384265,-0.8286216868,0.|H,-1.7286610954,-1.75
 28697368,0.||Version=IA32W-G09RevA.02|State=1-AG|HF=-78.5996456|RMSD=9
 .176e-010|RMSF=5.272e-005|ZeroPoint=0.0509881|Thermal=0.0540321|Dipole
 =0.,0.,0.|DipoleDeriv=0.0890523,-0.0532428,0.,-0.0532375,0.0275379,0.,
 0.,0.,-0.3259382,0.0145901,0.0734534,0.,0.0481321,-0.0729024,0.,0.,0.,
 0.1629682,-0.1036424,-0.0202107,0.,0.0051054,0.0453645,0.,0.,0.,0.1629
 7,0.0890523,-0.0532428,0.,-0.0532375,0.0275379,0.,0.,0.,-0.3259382,0.0
 145901,0.0734534,0.,0.0481321,-0.0729023,0.,0.,0.,0.1629682,-0.1036424
 ,-0.0202107,0.,0.0051054,0.0453645,0.,0.,0.,0.16297|Polar=24.6819265,6
 .0224627,31.6432206,0.,0.,18.1135952|PG=C02H [SGH(C2H4)]|NImag=0||0.69
 290892,0.09652560,0.80443031,0.,0.,0.10897825,-0.12582374,0.12235530,0
 .,0.12323876,0.11829818,-0.27081270,0.,-0.12794494,0.28968355,0.,0.,-0
 .03649752,0.,0.,0.02400427,-0.33879249,-0.00478253,0.,-0.00956093,-0.0
 0253998,0.,0.35888931,-0.00072605,-0.05786463,0.,0.02493679,0.00338360
 ,0.,0.00824498,0.05405007,0.,0.,-0.03649313,0.,0.,0.00280946,0.,0.,0.0
 2400147,-0.22713445,-0.19961239,0.,0.01141966,0.01559027,0.,-0.0125779
 0,-0.03007561,0.,0.69290892,-0.19961239,-0.45784663,0.,-0.01620614,-0.
 02095351,0.,0.00172016,0.00304717,0.,0.09652560,0.80443031,0.,0.,-0.04
 695241,0.,0.,0.00548311,0.,0.,0.00548169,0.,0.,0.10897825,0.01141966,-
 0.01620614,0.,-0.00062384,-0.00326313,0.,0.00135009,0.00012212,0.,-0.1
 2582374,0.12235530,0.,0.12323876,0.01559027,-0.02095351,0.,-0.00326313
 ,-0.00264069,0.,-0.00014040,0.00133975,0.,0.11829818,-0.27081270,0.,-0
 .12794494,0.28968355,0.,0.,0.00548311,0.,0.,0.01271741,0.,0.,-0.008516
 73,0.,0.,-0.03649752,0.,0.,0.02400427,-0.01257790,0.00172016,0.,0.0013
 5009,-0.00014040,0.,0.00069193,-0.00250223,0.,-0.33879249,-0.00478253,
 0.,-0.00956093,-0.00253998,0.,0.35888931,-0.03007561,0.00304717,0.,0.0
 0012212,0.00133975,0.,-0.00250223,-0.00395596,0.,-0.00072605,-0.057864
 63,0.,0.02493679,0.00338360,0.,0.00824498,0.05405007,0.,0.,0.00548169,
 0.,0.,-0.00851673,0.,0.,0.01271724,0.,0.,-0.03649313,0.,0.,0.00280946,
 0.,0.,0.02400147||0.00005018,0.00011446,0.,0.00004435,-0.00005580,0.,-
 0.00006538,0.00000621,0.,-0.00005018,-0.00011446,0.,-0.00004435,0.0000
 5580,0.,0.00006538,-0.00000621,0.|||@


       THE DEATH-KNELL OF THE ATOM

 SO THE ATOMS IN TURN, WE NOW CLEARLY DISCERN,
 FLY TO BITS WITH THE UTMOST FACILITY;
 THEY WEND ON THEIR WAY, AND, IN SPLITTING, DISPLAY
 AN ABSOLUTE LACK OF STABILITY.

          SIR WM. RAMSAY, 1905
 Job cpu time:  0 days  0 hours  0 minutes  5.0 seconds.
 File lengths (MBytes):  RWF=      5 Int=      0 D2E=      0 Chk=      1 Scr=      1
 Normal termination of Gaussian 09 at Sun Jan 17 13:02:06 2021.
