 Entering Link 1 = C:\G09W\l1.exe PID=      9484.
  
 Copyright (c) 1988,1990,1992,1993,1995,1998,2003,2009, Gaussian, Inc.
                  All Rights Reserved.
  
 This is part of the Gaussian(R) 09 program.  It is based on
 the Gaussian(R) 03 system (copyright 2003, Gaussian, Inc.),
 the Gaussian(R) 98 system (copyright 1998, Gaussian, Inc.),
 the Gaussian(R) 94 system (copyright 1995, Gaussian, Inc.),
 the Gaussian 92(TM) system (copyright 1992, Gaussian, Inc.),
 the Gaussian 90(TM) system (copyright 1990, Gaussian, Inc.),
 the Gaussian 88(TM) system (copyright 1988, Gaussian, Inc.),
 the Gaussian 86(TM) system (copyright 1986, Carnegie Mellon
 University), and the Gaussian 82(TM) system (copyright 1983,
 Carnegie Mellon University). Gaussian is a federally registered
 trademark of Gaussian, Inc.
  
 This software contains proprietary and confidential information,
 including trade secrets, belonging to Gaussian, Inc.
  
 This software is provided under written license and may be
 used, copied, transmitted, or stored only in accord with that
 written license.
  
 The following legend is applicable only to US Government
 contracts under FAR:
  
                    RESTRICTED RIGHTS LEGEND
  
 Use, reproduction and disclosure by the US Government is
 subject to restrictions as set forth in subparagraphs (a)
 and (c) of the Commercial Computer Software - Restricted
 Rights clause in FAR 52.227-19.
  
 Gaussian, Inc.
 340 Quinnipiac St., Bldg. 40, Wallingford CT 06492
  
  
 ---------------------------------------------------------------
 Warning -- This program may not be used in any manner that
 competes with the business of Gaussian, Inc. or will provide
 assistance to any competitor of Gaussian, Inc.  The licensee
 of this program is prohibited from giving any competitor of
 Gaussian, Inc. access to this program.  By using this program,
 the user acknowledges that Gaussian, Inc. is engaged in the
 business of creating and licensing software in the field of
 computational chemistry and represents and warrants to the
 licensee that it is not a competitor of Gaussian, Inc. and that
 it will not use this program in any manner prohibited above.
 ---------------------------------------------------------------
  

 Cite this work as:
 Gaussian 09, Revision A.02,
 M. J. Frisch, G. W. Trucks, H. B. Schlegel, G. E. Scuseria, 
 M. A. Robb, J. R. Cheeseman, G. Scalmani, V. Barone, B. Mennucci, 
 G. A. Petersson, H. Nakatsuji, M. Caricato, X. Li, H. P. Hratchian, 
 A. F. Izmaylov, J. Bloino, G. Zheng, J. L. Sonnenberg, M. Hada, 
 M. Ehara, K. Toyota, R. Fukuda, J. Hasegawa, M. Ishida, T. Nakajima, 
 Y. Honda, O. Kitao, H. Nakai, T. Vreven, J. A. Montgomery, Jr., 
 J. E. Peralta, F. Ogliaro, M. Bearpark, J. J. Heyd, E. Brothers, 
 K. N. Kudin, V. N. Staroverov, R. Kobayashi, J. Normand, 
 K. Raghavachari, A. Rendell, J. C. Burant, S. S. Iyengar, J. Tomasi, 
 M. Cossi, N. Rega, J. M. Millam, M. Klene, J. E. Knox, J. B. Cross, 
 V. Bakken, C. Adamo, J. Jaramillo, R. Gomperts, R. E. Stratmann, 
 O. Yazyev, A. J. Austin, R. Cammi, C. Pomelli, J. W. Ochterski, 
 R. L. Martin, K. Morokuma, V. G. Zakrzewski, G. A. Voth, 
 P. Salvador, J. J. Dannenberg, S. Dapprich, A. D. Daniels, 
 O. Farkas, J. B. Foresman, J. V. Ortiz, J. Cioslowski, 
 and D. J. Fox, Gaussian, Inc., Wallingford CT, 2009.
 
 ******************************************
 Gaussian 09:  IA32W-G09RevA.02 11-Jun-2009
                17-Jan-2021 
 ******************************************
 %chk=D:\Documents\rayGit\FQ\quimicaComputacional\p3Eteno\reactivos\etheneM052x.c
 hk
 %nprocshared=4
 Will use up to    4 processors via shared memory.
 %mem=1500mb
 ------------------------------------
 # opt freq=noraman 6-31+g(d,p) m052x
 ------------------------------------
 1/14=-1,18=20,19=15,26=3,38=1/1,3;
 2/9=110,12=2,17=6,18=5,40=1/2;
 3/5=1,6=6,7=111,11=2,16=1,25=1,30=1,71=1,74=-38/1,2,3;
 4//1;
 5/5=2,38=5/2;
 6/7=2,8=2,9=2,10=2,28=1/1;
 7//1,2,3,16;
 1/14=-1,18=20,19=15/3(2);
 2/9=110/2;
 99//99;
 2/9=110/2;
 3/5=1,6=6,7=111,11=2,16=1,25=1,30=1,71=1,74=-38/1,2,3;
 4/5=5,16=3/1;
 5/5=2,38=5/2;
 7//1,2,3,16;
 1/14=-1,18=20,19=15/3(-5);
 2/9=110/2;
 6/7=2,8=2,9=2,10=2,19=2,28=1/1;
 99/9=1/99;
 ------------
 Ethene M052x
 ------------
 Symbolic Z-matrix:
 Charge =  0 Multiplicity = 1
 C                    -3.48624  -2.95107   0. 
 H                    -2.95307  -3.87878   0. 
 H                    -4.55624  -2.95107   0. 
 C                    -2.81096  -1.77609   0. 
 H                    -3.34413  -0.84839   0. 
 H                    -1.74096  -1.77609   0. 
 

 GradGradGradGradGradGradGradGradGradGradGradGradGradGradGradGradGradGrad
 Berny optimization.
 Initialization pass.
                           ----------------------------
                           !    Initial Parameters    !
                           ! (Angstroms and Degrees)  !
 --------------------------                            --------------------------
 ! Name  Definition              Value          Derivative Info.                !
 --------------------------------------------------------------------------------
 ! R1    R(1,2)                  1.07           estimate D2E/DX2                !
 ! R2    R(1,3)                  1.07           estimate D2E/DX2                !
 ! R3    R(1,4)                  1.3552         estimate D2E/DX2                !
 ! R4    R(4,5)                  1.07           estimate D2E/DX2                !
 ! R5    R(4,6)                  1.07           estimate D2E/DX2                !
 ! A1    A(2,1,3)              119.8865         estimate D2E/DX2                !
 ! A2    A(2,1,4)              120.2269         estimate D2E/DX2                !
 ! A3    A(3,1,4)              119.8865         estimate D2E/DX2                !
 ! A4    A(1,4,5)              120.2269         estimate D2E/DX2                !
 ! A5    A(1,4,6)              119.8865         estimate D2E/DX2                !
 ! A6    A(5,4,6)              119.8865         estimate D2E/DX2                !
 ! D1    D(2,1,4,5)            180.0            estimate D2E/DX2                !
 ! D2    D(2,1,4,6)              0.0            estimate D2E/DX2                !
 ! D3    D(3,1,4,5)              0.0            estimate D2E/DX2                !
 ! D4    D(3,1,4,6)            180.0            estimate D2E/DX2                !
 --------------------------------------------------------------------------------
 Trust Radius=3.00D-01 FncErr=1.00D-07 GrdErr=1.00D-06
 Number of steps in this run=  25 maximum allowed number of steps= 100.
 GradGradGradGradGradGradGradGradGradGradGradGradGradGradGradGradGradGrad

                          Input orientation:                          
 ---------------------------------------------------------------------
 Center     Atomic      Atomic             Coordinates (Angstroms)
 Number     Number       Type             X           Y           Z
 ---------------------------------------------------------------------
      1          6           0       -3.486239   -2.951070    0.000000
      2          1           0       -2.953075   -3.878775    0.000000
      3          1           0       -4.556239   -2.951070    0.000000
      4          6           0       -2.810964   -1.776093    0.000000
      5          1           0       -3.344128   -0.848388    0.000000
      6          1           0       -1.740964   -1.776093    0.000000
 ---------------------------------------------------------------------
                    Distance matrix (angstroms):
                    1          2          3          4          5
     1  C    0.000000
     2  H    1.070000   0.000000
     3  H    1.070000   1.852234   0.000000
     4  C    1.355200   2.107479   2.103938   0.000000
     5  H    2.107479   3.055514   2.427032   1.070000   0.000000
     6  H    2.103938   2.427032   3.050630   1.070000   1.852234
                    6
     6  H    0.000000
 Stoichiometry    C2H4
 Framework group  C2H[SGH(C2H4)]
 Deg. of freedom     5
 Full point group                 C2H     NOp   4
 Largest Abelian subgroup         C2H     NOp   4
 Largest concise Abelian subgroup C2      NOp   2
                         Standard orientation:                         
 ---------------------------------------------------------------------
 Center     Atomic      Atomic             Coordinates (Angstroms)
 Number     Number       Type             X           Y           Z
 ---------------------------------------------------------------------
      1          6           0        0.000000    0.677600    0.000000
      2          1           0        0.924521    1.216266    0.000000
      3          1           0       -0.927705    1.210764    0.000000
      4          6           0        0.000000   -0.677600    0.000000
      5          1           0       -0.924521   -1.216266    0.000000
      6          1           0        0.927705   -1.210764    0.000000
 ---------------------------------------------------------------------
 Rotational constants (GHZ):    146.1648690     29.8053188     24.7569806
 Standard basis: 6-31+G(d,p) (6D, 7F)
 There are    22 symmetry adapted basis functions of AG  symmetry.
 There are     7 symmetry adapted basis functions of BG  symmetry.
 There are     7 symmetry adapted basis functions of AU  symmetry.
 There are    22 symmetry adapted basis functions of BU  symmetry.
 Integral buffers will be    262144 words long.
 Raffenetti 2 integral format.
 Two-electron integral symmetry is turned on.
    58 basis functions,    92 primitive gaussians,    58 cartesian basis functions
     8 alpha electrons        8 beta electrons
       nuclear repulsion energy        33.3121054968 Hartrees.
 NAtoms=    6 NActive=    6 NUniq=    3 SFac= 3.00D+00 NAtFMM=   80 NAOKFM=F Big=F
 One-electron integrals computed using PRISM.
 NBasis=    58 RedAO= T  NBF=    22     7     7    22
 NBsUse=    58 1.00D-06 NBFU=    22     7     7    22
 Harris functional with IExCor= 1009 diagonalized for initial guess.
 ExpMin= 4.38D-02 ExpMax= 3.05D+03 ExpMxC= 4.57D+02 IAcc=2 IRadAn=         0 AccDes= 0.00D+00
 HarFok:  IExCor= 1009 AccDes= 0.00D+00 IRadAn=         0 IDoV= 1
 ScaDFX=  1.000000  1.000000  1.000000  1.000000
 FoFCou: FMM=F IPFlag=           0 FMFlag=      100000 FMFlg1=           0
         NFxFlg=           0 DoJE=T BraDBF=F KetDBF=T FulRan=T
         Omega=  0.000000  0.000000  1.000000  0.000000  0.000000 ICntrl=     500 IOpCl=  0
         NMat0=    1 NMatS0=    1 NMatT0=    0 NMatD0=    1 NMtDS0=    0 NMtDT0=    0
         I1Cent=           4 NGrid=           0.
 Petite list used in FoFCou.
 Initial guess orbital symmetries:
       Occupied  (AG) (BU) (AG) (BU) (BU) (AG) (AG) (AU)
       Virtual   (BG) (AG) (BU) (BU) (AU) (AG) (AG) (BG) (AG) (BU)
                 (BU) (BU) (BU) (AG) (AG) (BU) (AU) (BU) (BG) (AG)
                 (BU) (AG) (AG) (BU) (BU) (AG) (AU) (BG) (AU) (AG)
                 (BU) (AG) (AG) (BU) (BG) (BU) (AU) (BG) (BU) (BG)
                 (AU) (AG) (AG) (BU) (AG) (BU) (BU) (AG) (AG) (BU)
 The electronic state of the initial guess is 1-AG.
 Requested convergence on RMS density matrix=1.00D-08 within 128 cycles.
 Requested convergence on MAX density matrix=1.00D-06.
 Requested convergence on             energy=1.00D-06.
 No special actions if energy rises.
 Keep R1 ints in memory in canonical form, NReq=2417035.
 SCF Done:  E(RM052X) =  -78.5742858209     A.U. after    8 cycles
             Convg  =    0.9493D-08             -V/T =  2.0100

 **********************************************************************

            Population analysis using the SCF density.

 **********************************************************************

 Orbital symmetries:
       Occupied  (AG) (BU) (AG) (BU) (BU) (AG) (AG) (AU)
       Virtual   (BG) (AG) (BU) (BU) (AU) (AG) (AG) (BG) (BU) (AG)
                 (BU) (BU) (BU) (AG) (AG) (BU) (AU) (BG) (BU) (AG)
                 (BU) (AG) (AG) (BU) (BU) (AG) (AU) (BG) (AU) (AG)
                 (BU) (AG) (AG) (BU) (BG) (BU) (AU) (BG) (BU) (BG)
                 (AU) (AG) (AG) (BU) (AG) (BU) (BU) (AG) (AG) (BU)
 The electronic state is 1-AG.
 Alpha  occ. eigenvalues --  -10.57951 -10.57847  -0.86842  -0.67619  -0.55600
 Alpha  occ. eigenvalues --   -0.48452  -0.43497  -0.33093
 Alpha virt. eigenvalues --    0.03470   0.06947   0.07697   0.09212   0.11167
 Alpha virt. eigenvalues --    0.12860   0.13270   0.17576   0.20447   0.23560
 Alpha virt. eigenvalues --    0.26432   0.31236   0.39983   0.41532   0.63161
 Alpha virt. eigenvalues --    0.70198   0.74885   0.79698   0.82782   0.86700
 Alpha virt. eigenvalues --    0.99764   1.01898   1.05760   1.10304   1.20947
 Alpha virt. eigenvalues --    1.29801   1.46528   1.46650   1.60751   1.95660
 Alpha virt. eigenvalues --    2.01716   2.05679   2.09220   2.16982   2.22426
 Alpha virt. eigenvalues --    2.32683   2.42301   2.52669   2.59726   2.62937
 Alpha virt. eigenvalues --    2.74738   2.79194   2.79766   3.02455   3.28469
 Alpha virt. eigenvalues --    3.42533   3.60125   3.82649   4.27459   4.56200
          Condensed to atoms (all electrons):
              1          2          3          4          5          6
     1  C    4.865407   0.392348   0.392335   0.699962  -0.025889  -0.026099
     2  H    0.392348   0.518630  -0.030890  -0.025889   0.003901  -0.007341
     3  H    0.392335  -0.030890   0.519218  -0.026099  -0.007341   0.003953
     4  C    0.699962  -0.025889  -0.026099   4.865407   0.392348   0.392335
     5  H   -0.025889   0.003901  -0.007341   0.392348   0.518630  -0.030890
     6  H   -0.026099  -0.007341   0.003953   0.392335  -0.030890   0.519218
 Mulliken atomic charges:
              1
     1  C   -0.298063
     2  H    0.149240
     3  H    0.148824
     4  C   -0.298063
     5  H    0.149240
     6  H    0.148824
 Sum of Mulliken atomic charges =   0.00000
 Mulliken charges with hydrogens summed into heavy atoms:
              1
     1  C    0.000000
     4  C    0.000000
 Sum of Mulliken charges with hydrogens summed into heavy atoms =   0.00000
 Electronic spatial extent (au):  <R**2>=             82.9850
 Charge=              0.0000 electrons
 Dipole moment (field-independent basis, Debye):
    X=              0.0000    Y=              0.0000    Z=              0.0000  Tot=              0.0000
 Quadrupole moment (field-independent basis, Debye-Ang):
   XX=            -12.0628   YY=            -12.3039   ZZ=            -16.0149
   XY=              0.0134   XZ=              0.0000   YZ=              0.0000
 Traceless Quadrupole moment (field-independent basis, Debye-Ang):
   XX=              1.3977   YY=              1.1567   ZZ=             -2.5544
   XY=              0.0134   XZ=              0.0000   YZ=              0.0000
 Octapole moment (field-independent basis, Debye-Ang**2):
  XXX=              0.0000  YYY=              0.0000  ZZZ=              0.0000  XYY=              0.0000
  XXY=              0.0000  XXZ=              0.0000  XZZ=              0.0000  YZZ=              0.0000
  YYZ=              0.0000  XYZ=              0.0000
 Hexadecapole moment (field-independent basis, Debye-Ang**3):
 XXXX=            -26.7712 YYYY=            -69.7011 ZZZZ=            -21.4809 XXXY=              0.0028
 XXXZ=              0.0000 YYYX=              0.0626 YYYZ=              0.0000 ZZZX=              0.0000
 ZZZY=              0.0000 XXYY=            -13.2822 XXZZ=             -8.7643 YYZZ=            -16.2197
 XXYZ=              0.0000 YYXZ=              0.0000 ZZXY=              0.0018
 N-N= 3.331210549684D+01 E-N=-2.478840386013D+02  KE= 7.779258701586D+01
 Symmetry AG   KE= 3.951601181328D+01
 Symmetry BG   KE= 1.140424697950D-31
 Symmetry AU   KE= 1.978088152706D+00
 Symmetry BU   KE= 3.629848704987D+01
 Calling FoFJK, ICntrl=      2127 FMM=F ISym2X=1 I1Cent= 0 IOpClX= 0 NMat=1 NMatS=1 NMatT=0.
 ***** Axes restored to original set *****
 -------------------------------------------------------------------
 Center     Atomic                   Forces (Hartrees/Bohr)
 Number     Number              X              Y              Z
 -------------------------------------------------------------------
      1        6           0.019463018    0.035444481    0.000000000
      2        1           0.001946465   -0.009441938    0.000000000
      3        1          -0.009274094   -0.003468516    0.000000000
      4        6          -0.019463018   -0.035444481    0.000000000
      5        1          -0.001946465    0.009441938    0.000000000
      6        1           0.009274094    0.003468516    0.000000000
 -------------------------------------------------------------------
 Cartesian Forces:  Max     0.035444481 RMS     0.014244292

 GradGradGradGradGradGradGradGradGradGradGradGradGradGradGradGradGradGrad
 Berny optimization.
 Internal  Forces:  Max     0.025584186 RMS     0.008376121
 Search for a local minimum.
 Step number   1 out of a maximum of   25
 All quantities printed in internal units (Hartrees-Bohrs-Radians)
 Mixed Optimization -- RFO/linear search
 Second derivative matrix not updated -- first step.
 The second derivative matrix:
                          R1        R2        R3        R4        R5
           R1           0.37230
           R2           0.00000   0.37230
           R3           0.00000   0.00000   0.53930
           R4           0.00000   0.00000   0.00000   0.37230
           R5           0.00000   0.00000   0.00000   0.00000   0.37230
           A1           0.00000   0.00000   0.00000   0.00000   0.00000
           A2           0.00000   0.00000   0.00000   0.00000   0.00000
           A3           0.00000   0.00000   0.00000   0.00000   0.00000
           A4           0.00000   0.00000   0.00000   0.00000   0.00000
           A5           0.00000   0.00000   0.00000   0.00000   0.00000
           A6           0.00000   0.00000   0.00000   0.00000   0.00000
           D1           0.00000   0.00000   0.00000   0.00000   0.00000
           D2           0.00000   0.00000   0.00000   0.00000   0.00000
           D3           0.00000   0.00000   0.00000   0.00000   0.00000
           D4           0.00000   0.00000   0.00000   0.00000   0.00000
                          A1        A2        A3        A4        A5
           A1           0.16000
           A2           0.00000   0.16000
           A3           0.00000   0.00000   0.16000
           A4           0.00000   0.00000   0.00000   0.16000
           A5           0.00000   0.00000   0.00000   0.00000   0.16000
           A6           0.00000   0.00000   0.00000   0.00000   0.00000
           D1           0.00000   0.00000   0.00000   0.00000   0.00000
           D2           0.00000   0.00000   0.00000   0.00000   0.00000
           D3           0.00000   0.00000   0.00000   0.00000   0.00000
           D4           0.00000   0.00000   0.00000   0.00000   0.00000
                          A6        D1        D2        D3        D4
           A6           0.16000
           D1           0.00000   0.02681
           D2           0.00000   0.00000   0.02681
           D3           0.00000   0.00000   0.00000   0.02681
           D4           0.00000   0.00000   0.00000   0.00000   0.02681
     Eigenvalues ---    0.02681   0.02681   0.02681   0.16000   0.16000
     Eigenvalues ---    0.16000   0.16000   0.37230   0.37230   0.37230
     Eigenvalues ---    0.37230   0.539301000.000001000.000001000.00000
 RFO step:  Lambda=-2.47247136D-03 EMin= 2.68137392D-02
 Linear search not attempted -- first point.
 Iteration  1 RMS(Cart)=  0.01149438 RMS(Int)=  0.00017410
 Iteration  2 RMS(Cart)=  0.00019655 RMS(Int)=  0.00000002
 Iteration  3 RMS(Cart)=  0.00000002 RMS(Int)=  0.00000000
 ClnCor:  largest displacement from symmetrization is 6.63D-14 for atom     5.
 Variable       Old X    -DE/DX   Delta X   Delta X   Delta X     New X
                                 (Linear)    (Quad)   (Total)
    R1        2.02201   0.00916   0.00000   0.02443   0.02443   2.04644
    R2        2.02201   0.00927   0.00000   0.02475   0.02475   2.04675
    R3        2.56096  -0.02558   0.00000  -0.04722  -0.04722   2.51373
    R4        2.02201   0.00916   0.00000   0.02443   0.02443   2.04644
    R5        2.02201   0.00927   0.00000   0.02475   0.02475   2.04675
    A1        2.09241  -0.00437   0.00000  -0.02691  -0.02691   2.06551
    A2        2.09836   0.00173   0.00000   0.01066   0.01066   2.10901
    A3        2.09241   0.00264   0.00000   0.01625   0.01625   2.10866
    A4        2.09836   0.00173   0.00000   0.01066   0.01066   2.10901
    A5        2.09241   0.00264   0.00000   0.01625   0.01625   2.10866
    A6        2.09241  -0.00437   0.00000  -0.02691  -0.02691   2.06551
    D1        3.14159   0.00000   0.00000   0.00000   0.00000   3.14159
    D2        0.00000   0.00000   0.00000   0.00000   0.00000   0.00000
    D3        0.00000   0.00000   0.00000   0.00000   0.00000   0.00000
    D4        3.14159   0.00000   0.00000   0.00000   0.00000   3.14159
         Item               Value     Threshold  Converged?
 Maximum Force            0.025584     0.000450     NO 
 RMS     Force            0.008376     0.000300     NO 
 Maximum Displacement     0.021494     0.001800     NO 
 RMS     Displacement     0.011490     0.001200     NO 
 Predicted change in Energy=-1.244705D-03
 GradGradGradGradGradGradGradGradGradGradGradGradGradGradGradGradGradGrad

                          Input orientation:                          
 ---------------------------------------------------------------------
 Center     Atomic      Atomic             Coordinates (Angstroms)
 Number     Number       Type             X           Y           Z
 ---------------------------------------------------------------------
      1          6           0       -3.480952   -2.939696    0.000000
      2          1           0       -2.952924   -3.885169    0.000000
      3          1           0       -4.563932   -2.955528    0.000000
      4          6           0       -2.816251   -1.787467    0.000000
      5          1           0       -3.344279   -0.841994    0.000000
      6          1           0       -1.733271   -1.771635    0.000000
 ---------------------------------------------------------------------
                    Distance matrix (angstroms):
                    1          2          3          4          5
     1  C    0.000000
     2  H    1.082928   0.000000
     3  H    1.083096   1.859994   0.000000
     4  C    1.330210   2.102150   2.102084   0.000000
     5  H    2.102150   3.068236   2.440201   1.082928   0.000000
     6  H    2.102084   2.440201   3.068264   1.083096   1.859994
                    6
     6  H    0.000000
 Stoichiometry    C2H4
 Framework group  C2H[SGH(C2H4)]
 Deg. of freedom     5
 Full point group                 C2H     NOp   4
 Largest Abelian subgroup         C2H     NOp   4
 Largest concise Abelian subgroup C2      NOp   2
                         Standard orientation:                         
 ---------------------------------------------------------------------
 Center     Atomic      Atomic             Coordinates (Angstroms)
 Number     Number       Type             X           Y           Z
 ---------------------------------------------------------------------
      1          6           0        0.000000    0.665105    0.000000
      2          1           0       -0.929828    1.220221    0.000000
      3          1           0        0.930167    1.219980    0.000000
      4          6           0        0.000000   -0.665105    0.000000
      5          1           0        0.929828   -1.220221    0.000000
      6          1           0       -0.930167   -1.219980    0.000000
 ---------------------------------------------------------------------
 Rotational constants (GHZ):    144.9468434     30.4116646     25.1375016
 Standard basis: 6-31+G(d,p) (6D, 7F)
 There are    22 symmetry adapted basis functions of AG  symmetry.
 There are     7 symmetry adapted basis functions of BG  symmetry.
 There are     7 symmetry adapted basis functions of AU  symmetry.
 There are    22 symmetry adapted basis functions of BU  symmetry.
 Integral buffers will be    262144 words long.
 Raffenetti 2 integral format.
 Two-electron integral symmetry is turned on.
    58 basis functions,    92 primitive gaussians,    58 cartesian basis functions
     8 alpha electrons        8 beta electrons
       nuclear repulsion energy        33.4374322953 Hartrees.
 NAtoms=    6 NActive=    6 NUniq=    3 SFac= 3.00D+00 NAtFMM=   80 NAOKFM=F Big=F
 One-electron integrals computed using PRISM.
 NBasis=    58 RedAO= T  NBF=    22     7     7    22
 NBsUse=    58 1.00D-06 NBFU=    22     7     7    22
 Initial guess read from the read-write file.
 B after Tr=     0.000000    0.000000    0.000000
         Rot=    1.000000    0.000000    0.000000    0.000000 Ang=   0.00 deg.
 Initial guess orbital symmetries:
       Occupied  (AG) (BU) (AG) (BU) (BU) (AG) (AG) (AU)
       Virtual   (BG) (AG) (BU) (BU) (AU) (AG) (AG) (BG) (BU) (AG)
                 (BU) (BU) (BU) (AG) (AG) (BU) (AU) (BG) (BU) (AG)
                 (BU) (AG) (AG) (BU) (BU) (AG) (AU) (BG) (AU) (AG)
                 (BU) (AG) (AG) (BU) (BG) (BU) (AU) (BG) (BU) (BG)
                 (AU) (AG) (AG) (BU) (AG) (BU) (BU) (AG) (AG) (BU)
 Harris functional with IExCor= 1009 diagonalized for initial guess.
 ExpMin= 4.38D-02 ExpMax= 3.05D+03 ExpMxC= 4.57D+02 IAcc=2 IRadAn=         0 AccDes= 0.00D+00
 HarFok:  IExCor= 1009 AccDes= 0.00D+00 IRadAn=         0 IDoV= 1
 ScaDFX=  1.000000  1.000000  1.000000  1.000000
 FoFCou: FMM=F IPFlag=           0 FMFlag=      100000 FMFlg1=           0
         NFxFlg=           0 DoJE=T BraDBF=F KetDBF=T FulRan=T
         Omega=  0.000000  0.000000  1.000000  0.000000  0.000000 ICntrl=     500 IOpCl=  0
         NMat0=    1 NMatS0=    1 NMatT0=    0 NMatD0=    1 NMtDS0=    0 NMtDT0=    0
         I1Cent=           4 NGrid=           0.
 Petite list used in FoFCou.
 Requested convergence on RMS density matrix=1.00D-08 within 128 cycles.
 Requested convergence on MAX density matrix=1.00D-06.
 Requested convergence on             energy=1.00D-06.
 No special actions if energy rises.
 Keep R1 ints in memory in canonical form, NReq=2417035.
 SCF Done:  E(RM052X) =  -78.5756145393     A.U. after   10 cycles
             Convg  =    0.5279D-09             -V/T =  2.0101
 Calling FoFJK, ICntrl=      2127 FMM=F ISym2X=1 I1Cent= 0 IOpClX= 0 NMat=1 NMatS=1 NMatT=0.
 ***** Axes restored to original set *****
 -------------------------------------------------------------------
 Center     Atomic                   Forces (Hartrees/Bohr)
 Number     Number              X              Y              Z
 -------------------------------------------------------------------
      1        6           0.000989174    0.001996274    0.000000000
      2        1          -0.001532420   -0.001108830    0.000000000
      3        1          -0.000084073   -0.001902159    0.000000000
      4        6          -0.000989174   -0.001996274    0.000000000
      5        1           0.001532420    0.001108830    0.000000000
      6        1           0.000084073    0.001902159    0.000000000
 -------------------------------------------------------------------
 Cartesian Forces:  Max     0.001996274 RMS     0.001162692

 GradGradGradGradGradGradGradGradGradGradGradGradGradGradGradGradGradGrad
 Berny optimization.
 Using GEDIIS/GDIIS optimizer.
 Internal  Forces:  Max     0.002578231 RMS     0.001196896
 Search for a local minimum.
 Step number   2 out of a maximum of   25
 All quantities printed in internal units (Hartrees-Bohrs-Radians)
 Mixed Optimization -- RFO/linear search
 Update second derivatives using D2CorX and points    1    2
 DE= -1.33D-03 DEPred=-1.24D-03 R= 1.07D+00
 SS=  1.41D+00  RLast= 8.28D-02 DXNew= 5.0454D-01 2.4832D-01
 Trust test= 1.07D+00 RLast= 8.28D-02 DXMaxT set to 3.00D-01
 The second derivative matrix:
                          R1        R2        R3        R4        R5
           R1           0.37326
           R2           0.00140   0.37417
           R3          -0.00950  -0.01093   0.58634
           R4           0.00096   0.00140  -0.00950   0.37326
           R5           0.00140   0.00187  -0.01093   0.00140   0.37417
           A1           0.00899   0.00902  -0.02381   0.00899   0.00902
           A2          -0.00451  -0.00455   0.01228  -0.00451  -0.00455
           A3          -0.00448  -0.00447   0.01153  -0.00448  -0.00447
           A4          -0.00451  -0.00455   0.01228  -0.00451  -0.00455
           A5          -0.00448  -0.00447   0.01153  -0.00448  -0.00447
           A6           0.00899   0.00902  -0.02381   0.00899   0.00902
           D1           0.00000   0.00000   0.00000   0.00000   0.00000
           D2           0.00000   0.00000   0.00000   0.00000   0.00000
           D3           0.00000   0.00000   0.00000   0.00000   0.00000
           D4           0.00000   0.00000   0.00000   0.00000   0.00000
                          A1        A2        A3        A4        A5
           A1           0.15385
           A2           0.00263   0.15891
           A3           0.00352  -0.00154   0.15801
           A4           0.00263  -0.00109  -0.00154   0.15891
           A5           0.00352  -0.00154  -0.00199  -0.00154   0.15801
           A6          -0.00615   0.00263   0.00352   0.00263   0.00352
           D1           0.00000   0.00000   0.00000   0.00000   0.00000
           D2           0.00000   0.00000   0.00000   0.00000   0.00000
           D3           0.00000   0.00000   0.00000   0.00000   0.00000
           D4           0.00000   0.00000   0.00000   0.00000   0.00000
                          A6        D1        D2        D3        D4
           A6           0.15385
           D1           0.00000   0.02681
           D2           0.00000   0.00000   0.02681
           D3           0.00000   0.00000   0.00000   0.02681
           D4           0.00000   0.00000   0.00000   0.00000   0.02681
 Use linear search instead of GDIIS.
     Eigenvalues ---    0.02681   0.02681   0.02681   0.13416   0.16000
     Eigenvalues ---    0.16000   0.16008   0.37223   0.37230   0.37230
     Eigenvalues ---    0.37900   0.592671000.000001000.000001000.00000
 RFO step:  Lambda=-1.31917225D-04 EMin= 2.68137392D-02
 Quartic linear search produced a step of  0.07142.
 Iteration  1 RMS(Cart)=  0.00982770 RMS(Int)=  0.00004599
 Iteration  2 RMS(Cart)=  0.00004623 RMS(Int)=  0.00000000
 Iteration  3 RMS(Cart)=  0.00000000 RMS(Int)=  0.00000000
 ClnCor:  largest displacement from symmetrization is 1.05D-13 for atom     4.
 Variable       Old X    -DE/DX   Delta X   Delta X   Delta X     New X
                                 (Linear)    (Quad)   (Total)
    R1        2.04644   0.00022   0.00174   0.00013   0.00188   2.04831
    R2        2.04675   0.00011   0.00177  -0.00019   0.00158   2.04833
    R3        2.51373   0.00119  -0.00337   0.00331  -0.00006   2.51367
    R4        2.04644   0.00022   0.00174   0.00013   0.00188   2.04831
    R5        2.04675   0.00011   0.00177  -0.00019   0.00158   2.04833
    A1        2.06551  -0.00258  -0.00192  -0.01663  -0.01855   2.04696
    A2        2.10901   0.00127   0.00076   0.00822   0.00899   2.11800
    A3        2.10866   0.00131   0.00116   0.00840   0.00956   2.11822
    A4        2.10901   0.00127   0.00076   0.00822   0.00899   2.11800
    A5        2.10866   0.00131   0.00116   0.00840   0.00956   2.11822
    A6        2.06551  -0.00258  -0.00192  -0.01663  -0.01855   2.04696
    D1        3.14159   0.00000   0.00000   0.00000   0.00000   3.14159
    D2        0.00000   0.00000   0.00000   0.00000   0.00000   0.00000
    D3        0.00000   0.00000   0.00000   0.00000   0.00000   0.00000
    D4        3.14159   0.00000   0.00000   0.00000   0.00000   3.14159
         Item               Value     Threshold  Converged?
 Maximum Force            0.002578     0.000450     NO 
 RMS     Force            0.001197     0.000300     NO 
 Maximum Displacement     0.019069     0.001800     NO 
 RMS     Displacement     0.009832     0.001200     NO 
 Predicted change in Energy=-7.282392D-05
 GradGradGradGradGradGradGradGradGradGradGradGradGradGradGradGradGradGrad

                          Input orientation:                          
 ---------------------------------------------------------------------
 Center     Atomic      Atomic             Coordinates (Angstroms)
 Number     Number       Type             X           Y           Z
 ---------------------------------------------------------------------
      1          6           0       -3.481053   -2.939619    0.000000
      2          1           0       -2.961246   -3.890769    0.000000
      3          1           0       -4.564673   -2.965619    0.000000
      4          6           0       -2.816149   -1.787544    0.000000
      5          1           0       -3.335957   -0.836394    0.000000
      6          1           0       -1.732530   -1.761544    0.000000
 ---------------------------------------------------------------------
                    Distance matrix (angstroms):
                    1          2          3          4          5
     1  C    0.000000
     2  H    1.083921   0.000000
     3  H    1.083932   1.851183   0.000000
     4  C    1.330178   2.108224   2.108363   0.000000
     5  H    2.108224   3.077273   2.458321   1.083921   0.000000
     6  H    2.108363   2.458321   3.077472   1.083932   1.851183
                    6
     6  H    0.000000
 Stoichiometry    C2H4
 Framework group  C2H[SGH(C2H4)]
 Deg. of freedom     5
 Full point group                 C2H     NOp   4
 Largest Abelian subgroup         C2H     NOp   4
 Largest concise Abelian subgroup C2      NOp   2
                         Standard orientation:                         
 ---------------------------------------------------------------------
 Center     Atomic      Atomic             Coordinates (Angstroms)
 Number     Number       Type             X           Y           Z
 ---------------------------------------------------------------------
      1          6           0        0.000000    0.665089    0.000000
      2          1           0       -0.925650    1.229054    0.000000
      3          1           0        0.925533    1.229267    0.000000
      4          6           0        0.000000   -0.665089    0.000000
      5          1           0        0.925650   -1.229054    0.000000
      6          1           0       -0.925533   -1.229267    0.000000
 ---------------------------------------------------------------------
 Rotational constants (GHZ):    146.3299538     30.2497617     25.0676937
 Standard basis: 6-31+G(d,p) (6D, 7F)
 There are    22 symmetry adapted basis functions of AG  symmetry.
 There are     7 symmetry adapted basis functions of BG  symmetry.
 There are     7 symmetry adapted basis functions of AU  symmetry.
 There are    22 symmetry adapted basis functions of BU  symmetry.
 Integral buffers will be    262144 words long.
 Raffenetti 2 integral format.
 Two-electron integral symmetry is turned on.
    58 basis functions,    92 primitive gaussians,    58 cartesian basis functions
     8 alpha electrons        8 beta electrons
       nuclear repulsion energy        33.4086723115 Hartrees.
 NAtoms=    6 NActive=    6 NUniq=    3 SFac= 3.00D+00 NAtFMM=   80 NAOKFM=F Big=F
 One-electron integrals computed using PRISM.
 NBasis=    58 RedAO= T  NBF=    22     7     7    22
 NBsUse=    58 1.00D-06 NBFU=    22     7     7    22
 Initial guess read from the read-write file.
 B after Tr=     0.000000    0.000000    0.000000
         Rot=    1.000000    0.000000    0.000000    0.000000 Ang=   0.00 deg.
 Initial guess orbital symmetries:
       Occupied  (AG) (BU) (AG) (BU) (BU) (AG) (AG) (AU)
       Virtual   (BG) (AG) (BU) (BU) (AU) (AG) (AG) (BG) (BU) (AG)
                 (BU) (BU) (BU) (AG) (AG) (BU) (AU) (BG) (BU) (AG)
                 (BU) (AG) (AG) (BU) (BU) (AG) (BG) (AU) (AU) (AG)
                 (BU) (AG) (AG) (BU) (BG) (BU) (AU) (BG) (BU) (BG)
                 (AU) (AG) (AG) (BU) (AG) (BU) (BU) (AG) (AG) (BU)
 Requested convergence on RMS density matrix=1.00D-08 within 128 cycles.
 Requested convergence on MAX density matrix=1.00D-06.
 Requested convergence on             energy=1.00D-06.
 No special actions if energy rises.
 Keep R1 ints in memory in canonical form, NReq=2417035.
 SCF Done:  E(RM052X) =  -78.5756986002     A.U. after    7 cycles
             Convg  =    0.2787D-08             -V/T =  2.0102
 Calling FoFJK, ICntrl=      2127 FMM=F ISym2X=1 I1Cent= 0 IOpClX= 0 NMat=1 NMatS=1 NMatT=0.
 ***** Axes restored to original set *****
 -------------------------------------------------------------------
 Center     Atomic                   Forces (Hartrees/Bohr)
 Number     Number              X              Y              Z
 -------------------------------------------------------------------
      1        6           0.000143444    0.000198548    0.000000000
      2        1          -0.000457725    0.000114254    0.000000000
      3        1           0.000339772   -0.000322352    0.000000000
      4        6          -0.000143444   -0.000198548    0.000000000
      5        1           0.000457725   -0.000114254    0.000000000
      6        1          -0.000339772    0.000322352    0.000000000
 -------------------------------------------------------------------
 Cartesian Forces:  Max     0.000457725 RMS     0.000236154

 GradGradGradGradGradGradGradGradGradGradGradGradGradGradGradGradGradGrad
 Berny optimization.
 Using GEDIIS/GDIIS optimizer.
 Internal  Forces:  Max     0.000462426 RMS     0.000266776
 Search for a local minimum.
 Step number   3 out of a maximum of   25
 All quantities printed in internal units (Hartrees-Bohrs-Radians)
 Mixed Optimization -- En-DIIS/RFO-DIIS
 Update second derivatives using D2CorX and points    1    2    3
 DE= -8.41D-05 DEPred=-7.28D-05 R= 1.15D+00
 SS=  1.41D+00  RLast= 3.23D-02 DXNew= 5.0454D-01 9.6949D-02
 Trust test= 1.15D+00 RLast= 3.23D-02 DXMaxT set to 3.00D-01
 The second derivative matrix:
                          R1        R2        R3        R4        R5
           R1           0.37796
           R2           0.00587   0.37840
           R3          -0.00983  -0.01124   0.58650
           R4           0.00566   0.00587  -0.00983   0.37796
           R5           0.00587   0.00610  -0.01124   0.00587   0.37840
           A1           0.00358   0.00336  -0.02346   0.00358   0.00336
           A2          -0.00209  -0.00198   0.01212  -0.00209  -0.00198
           A3          -0.00149  -0.00137   0.01134  -0.00149  -0.00137
           A4          -0.00209  -0.00198   0.01212  -0.00209  -0.00198
           A5          -0.00149  -0.00137   0.01134  -0.00149  -0.00137
           A6           0.00358   0.00336  -0.02346   0.00358   0.00336
           D1           0.00000   0.00000   0.00000   0.00000   0.00000
           D2           0.00000   0.00000   0.00000   0.00000   0.00000
           D3           0.00000   0.00000   0.00000   0.00000   0.00000
           D4           0.00000   0.00000   0.00000   0.00000   0.00000
                          A1        A2        A3        A4        A5
           A1           0.14515
           A2           0.00727   0.15646
           A3           0.00758  -0.00373   0.15615
           A4           0.00727  -0.00354  -0.00373   0.15646
           A5           0.00758  -0.00373  -0.00385  -0.00373   0.15615
           A6          -0.01485   0.00727   0.00758   0.00727   0.00758
           D1           0.00000   0.00000   0.00000   0.00000   0.00000
           D2           0.00000   0.00000   0.00000   0.00000   0.00000
           D3           0.00000   0.00000   0.00000   0.00000   0.00000
           D4           0.00000   0.00000   0.00000   0.00000   0.00000
                          A6        D1        D2        D3        D4
           A6           0.14515
           D1           0.00000   0.02681
           D2           0.00000   0.00000   0.02681
           D3           0.00000   0.00000   0.00000   0.02681
           D4           0.00000   0.00000   0.00000   0.00000   0.02681
 Use linear search instead of GDIIS.
     Eigenvalues ---    0.02681   0.02681   0.02681   0.11161   0.16000
     Eigenvalues ---    0.16000   0.16006   0.37230   0.37230   0.37230
     Eigenvalues ---    0.39372   0.592461000.000001000.000001000.00000
 RFO step:  Lambda=-2.00397966D-06 EMin= 2.68137392D-02
 Quartic linear search produced a step of  0.19330.
 Iteration  1 RMS(Cart)=  0.00205915 RMS(Int)=  0.00000223
 Iteration  2 RMS(Cart)=  0.00000225 RMS(Int)=  0.00000000
 Iteration  3 RMS(Cart)=  0.00000000 RMS(Int)=  0.00000000
 ClnCor:  largest displacement from symmetrization is 5.98D-14 for atom     5.
 Variable       Old X    -DE/DX   Delta X   Delta X   Delta X     New X
                                 (Linear)    (Quad)   (Total)
    R1        2.04831  -0.00032   0.00036  -0.00107  -0.00071   2.04760
    R2        2.04833  -0.00033   0.00031  -0.00106  -0.00075   2.04758
    R3        2.51367   0.00000  -0.00001  -0.00053  -0.00054   2.51313
    R4        2.04831  -0.00032   0.00036  -0.00107  -0.00071   2.04760
    R5        2.04833  -0.00033   0.00031  -0.00106  -0.00075   2.04758
    A1        2.04696  -0.00046  -0.00359  -0.00043  -0.00402   2.04294
    A2        2.11800   0.00025   0.00174   0.00036   0.00210   2.12010
    A3        2.11822   0.00021   0.00185   0.00007   0.00192   2.12014
    A4        2.11800   0.00025   0.00174   0.00036   0.00210   2.12010
    A5        2.11822   0.00021   0.00185   0.00007   0.00192   2.12014
    A6        2.04696  -0.00046  -0.00359  -0.00043  -0.00402   2.04294
    D1        3.14159   0.00000   0.00000   0.00000   0.00000   3.14159
    D2        0.00000   0.00000   0.00000   0.00000   0.00000   0.00000
    D3        0.00000   0.00000   0.00000   0.00000   0.00000   0.00000
    D4        3.14159   0.00000   0.00000   0.00000   0.00000   3.14159
         Item               Value     Threshold  Converged?
 Maximum Force            0.000462     0.000450     NO 
 RMS     Force            0.000267     0.000300     YES
 Maximum Displacement     0.003832     0.001800     NO 
 RMS     Displacement     0.002059     0.001200     NO 
 Predicted change in Energy=-3.274808D-06
 GradGradGradGradGradGradGradGradGradGradGradGradGradGradGradGradGradGrad

                          Input orientation:                          
 ---------------------------------------------------------------------
 Center     Atomic      Atomic             Coordinates (Angstroms)
 Number     Number       Type             X           Y           Z
 ---------------------------------------------------------------------
      1          6           0       -3.480952   -2.939512    0.000000
      2          1           0       -2.963274   -3.891393    0.000000
      3          1           0       -4.564121   -2.967638    0.000000
      4          6           0       -2.816251   -1.787652    0.000000
      5          1           0       -3.333929   -0.835770    0.000000
      6          1           0       -1.733082   -1.759525    0.000000
 ---------------------------------------------------------------------
                    Distance matrix (angstroms):
                    1          2          3          4          5
     1  C    0.000000
     2  H    1.083544   0.000000
     3  H    1.083534   1.848251   0.000000
     4  C    1.329891   2.108873   2.108890   0.000000
     5  H    2.108873   3.078022   2.461348   1.083544   0.000000
     6  H    2.108890   2.461348   3.078037   1.083534   1.848251
                    6
     6  H    0.000000
 Stoichiometry    C2H4
 Framework group  C2H[SGH(C2H4)]
 Deg. of freedom     5
 Full point group                 C2H     NOp   4
 Largest Abelian subgroup         C2H     NOp   4
 Largest concise Abelian subgroup C2      NOp   2
                         Standard orientation:                         
 ---------------------------------------------------------------------
 Center     Atomic      Atomic             Coordinates (Angstroms)
 Number     Number       Type             X           Y           Z
 ---------------------------------------------------------------------
      1          6           0        0.000000    0.664945    0.000000
      2          1           0        0.924143    1.230656    0.000000
      3          1           0       -0.924108    1.230692    0.000000
      4          6           0        0.000000   -0.664945    0.000000
      5          1           0       -0.924143   -1.230656    0.000000
      6          1           0        0.924108   -1.230692    0.000000
 ---------------------------------------------------------------------
 Rotational constants (GHZ):    146.7945794     30.2309061     25.0683292
 Standard basis: 6-31+G(d,p) (6D, 7F)
 There are    22 symmetry adapted basis functions of AG  symmetry.
 There are     7 symmetry adapted basis functions of BG  symmetry.
 There are     7 symmetry adapted basis functions of AU  symmetry.
 There are    22 symmetry adapted basis functions of BU  symmetry.
 Integral buffers will be    262144 words long.
 Raffenetti 2 integral format.
 Two-electron integral symmetry is turned on.
    58 basis functions,    92 primitive gaussians,    58 cartesian basis functions
     8 alpha electrons        8 beta electrons
       nuclear repulsion energy        33.4145803426 Hartrees.
 NAtoms=    6 NActive=    6 NUniq=    3 SFac= 3.00D+00 NAtFMM=   80 NAOKFM=F Big=F
 One-electron integrals computed using PRISM.
 NBasis=    58 RedAO= T  NBF=    22     7     7    22
 NBsUse=    58 1.00D-06 NBFU=    22     7     7    22
 Initial guess read from the read-write file.
 B after Tr=     0.000000    0.000000    0.000000
         Rot=    1.000000    0.000000    0.000000    0.000000 Ang=   0.00 deg.
 Initial guess orbital symmetries:
       Occupied  (AG) (BU) (AG) (BU) (BU) (AG) (AG) (AU)
       Virtual   (BG) (AG) (BU) (BU) (AU) (AG) (AG) (BG) (BU) (AG)
                 (BU) (BU) (BU) (AG) (AG) (BU) (AU) (BG) (BU) (AG)
                 (BU) (AG) (AG) (BU) (BU) (AG) (BG) (AU) (AU) (AG)
                 (BU) (AG) (AG) (BU) (BG) (BU) (AU) (BG) (BU) (BG)
                 (AU) (AG) (AG) (BU) (AG) (BU) (BU) (AG) (AG) (BU)
 Requested convergence on RMS density matrix=1.00D-08 within 128 cycles.
 Requested convergence on MAX density matrix=1.00D-06.
 Requested convergence on             energy=1.00D-06.
 No special actions if energy rises.
 Keep R1 ints in memory in canonical form, NReq=2417035.
 SCF Done:  E(RM052X) =  -78.5757018720     A.U. after   10 cycles
             Convg  =    0.6013D-08             -V/T =  2.0102
 Calling FoFJK, ICntrl=      2127 FMM=F ISym2X=1 I1Cent= 0 IOpClX= 0 NMat=1 NMatS=1 NMatT=0.
 ***** Axes restored to original set *****
 -------------------------------------------------------------------
 Center     Atomic                   Forces (Hartrees/Bohr)
 Number     Number              X              Y              Z
 -------------------------------------------------------------------
      1        6          -0.000054240   -0.000118069    0.000000000
      2        1          -0.000011311    0.000015542    0.000000000
      3        1           0.000012490    0.000000812    0.000000000
      4        6           0.000054240    0.000118069    0.000000000
      5        1           0.000011311   -0.000015542    0.000000000
      6        1          -0.000012490   -0.000000812    0.000000000
 -------------------------------------------------------------------
 Cartesian Forces:  Max     0.000118069 RMS     0.000043980

 GradGradGradGradGradGradGradGradGradGradGradGradGradGradGradGradGradGrad
 Berny optimization.
 Using GEDIIS/GDIIS optimizer.
 Internal  Forces:  Max     0.000114620 RMS     0.000030790
 Search for a local minimum.
 Step number   4 out of a maximum of   25
 All quantities printed in internal units (Hartrees-Bohrs-Radians)
 Mixed Optimization -- En-DIIS/RFO-DIIS
 Swaping is turned off.
 Update second derivatives using D2CorX and points    1    2    3    4
 DE= -3.27D-06 DEPred=-3.27D-06 R= 9.99D-01
 SS=  1.41D+00  RLast= 7.14D-03 DXNew= 5.0454D-01 2.1414D-02
 Trust test= 9.99D-01 RLast= 7.14D-03 DXMaxT set to 3.00D-01
 The second derivative matrix:
                          R1        R2        R3        R4        R5
           R1           0.37285
           R2           0.00092   0.37365
           R3          -0.00046  -0.00169   0.59497
           R4           0.00055   0.00092  -0.00046   0.37285
           R5           0.00092   0.00135  -0.00169   0.00092   0.37365
           A1           0.00280   0.00307  -0.01665   0.00280   0.00307
           A2          -0.00136  -0.00150   0.00822  -0.00136  -0.00150
           A3          -0.00144  -0.00157   0.00844  -0.00144  -0.00157
           A4          -0.00136  -0.00150   0.00822  -0.00136  -0.00150
           A5          -0.00144  -0.00157   0.00844  -0.00144  -0.00157
           A6           0.00280   0.00307  -0.01665   0.00280   0.00307
           D1           0.00000   0.00000   0.00000   0.00000   0.00000
           D2           0.00000   0.00000   0.00000   0.00000   0.00000
           D3           0.00000   0.00000   0.00000   0.00000   0.00000
           D4           0.00000   0.00000   0.00000   0.00000   0.00000
                          A1        A2        A3        A4        A5
           A1           0.14493
           A2           0.00758   0.15619
           A3           0.00749  -0.00376   0.15627
           A4           0.00758  -0.00381  -0.00376   0.15619
           A5           0.00749  -0.00376  -0.00373  -0.00376   0.15627
           A6          -0.01507   0.00758   0.00749   0.00758   0.00749
           D1           0.00000   0.00000   0.00000   0.00000   0.00000
           D2           0.00000   0.00000   0.00000   0.00000   0.00000
           D3           0.00000   0.00000   0.00000   0.00000   0.00000
           D4           0.00000   0.00000   0.00000   0.00000   0.00000
                          A6        D1        D2        D3        D4
           A6           0.14493
           D1           0.00000   0.02681
           D2           0.00000   0.00000   0.02681
           D3           0.00000   0.00000   0.00000   0.02681
           D4           0.00000   0.00000   0.00000   0.00000   0.02681
     Eigenvalues ---    0.02681   0.02681   0.02681   0.11270   0.15998
     Eigenvalues ---    0.16000   0.16000   0.37219   0.37230   0.37230
     Eigenvalues ---    0.37654   0.596741000.000001000.000001000.00000
 En-DIIS/RFO-DIIS IScMMF=        0 using points:     4    3
 RFO step:  Lambda=-1.88272866D-08.
 DIIS coeffs:      1.00022     -0.00022
 Iteration  1 RMS(Cart)=  0.00004844 RMS(Int)=  0.00000000
 Iteration  2 RMS(Cart)=  0.00000000 RMS(Int)=  0.00000000
 ClnCor:  largest displacement from symmetrization is 1.15D-13 for atom     6.
 Variable       Old X    -DE/DX   Delta X   Delta X   Delta X     New X
                                  (DIIS)     (GDIIS)  (Total)
    R1        2.04760  -0.00002   0.00000  -0.00005  -0.00005   2.04755
    R2        2.04758  -0.00001   0.00000  -0.00003  -0.00003   2.04755
    R3        2.51313   0.00011   0.00000   0.00019   0.00019   2.51332
    R4        2.04760  -0.00002   0.00000  -0.00005  -0.00005   2.04755
    R5        2.04758  -0.00001   0.00000  -0.00003  -0.00003   2.04755
    A1        2.04294   0.00000   0.00000   0.00002   0.00002   2.04296
    A2        2.12010   0.00000   0.00000   0.00001   0.00001   2.12011
    A3        2.12014   0.00000   0.00000  -0.00003  -0.00003   2.12011
    A4        2.12010   0.00000   0.00000   0.00001   0.00001   2.12011
    A5        2.12014   0.00000   0.00000  -0.00003  -0.00003   2.12011
    A6        2.04294   0.00000   0.00000   0.00002   0.00002   2.04296
    D1        3.14159   0.00000   0.00000   0.00000   0.00000   3.14159
    D2        0.00000   0.00000   0.00000   0.00000   0.00000   0.00000
    D3        0.00000   0.00000   0.00000   0.00000   0.00000   0.00000
    D4        3.14159   0.00000   0.00000   0.00000   0.00000   3.14159
         Item               Value     Threshold  Converged?
 Maximum Force            0.000115     0.000450     YES
 RMS     Force            0.000031     0.000300     YES
 Maximum Displacement     0.000092     0.001800     YES
 RMS     Displacement     0.000048     0.001200     YES
 Predicted change in Energy=-1.258386D-08
 Optimization completed.
    -- Stationary point found.
                           ----------------------------
                           !   Optimized Parameters   !
                           ! (Angstroms and Degrees)  !
 --------------------------                            --------------------------
 ! Name  Definition              Value          Derivative Info.                !
 --------------------------------------------------------------------------------
 ! R1    R(1,2)                  1.0835         -DE/DX =    0.0                 !
 ! R2    R(1,3)                  1.0835         -DE/DX =    0.0                 !
 ! R3    R(1,4)                  1.3299         -DE/DX =    0.0001              !
 ! R4    R(4,5)                  1.0835         -DE/DX =    0.0                 !
 ! R5    R(4,6)                  1.0835         -DE/DX =    0.0                 !
 ! A1    A(2,1,3)              117.052          -DE/DX =    0.0                 !
 ! A2    A(2,1,4)              121.4727         -DE/DX =    0.0                 !
 ! A3    A(3,1,4)              121.4753         -DE/DX =    0.0                 !
 ! A4    A(1,4,5)              121.4727         -DE/DX =    0.0                 !
 ! A5    A(1,4,6)              121.4753         -DE/DX =    0.0                 !
 ! A6    A(5,4,6)              117.052          -DE/DX =    0.0                 !
 ! D1    D(2,1,4,5)            180.0            -DE/DX =    0.0                 !
 ! D2    D(2,1,4,6)              0.0            -DE/DX =    0.0                 !
 ! D3    D(3,1,4,5)              0.0            -DE/DX =    0.0                 !
 ! D4    D(3,1,4,6)            180.0            -DE/DX =    0.0                 !
 --------------------------------------------------------------------------------
 GradGradGradGradGradGradGradGradGradGradGradGradGradGradGradGradGradGrad

                          Input orientation:                          
 ---------------------------------------------------------------------
 Center     Atomic      Atomic             Coordinates (Angstroms)
 Number     Number       Type             X           Y           Z
 ---------------------------------------------------------------------
      1          6           0       -3.480952   -2.939512    0.000000
      2          1           0       -2.963274   -3.891393    0.000000
      3          1           0       -4.564121   -2.967638    0.000000
      4          6           0       -2.816251   -1.787652    0.000000
      5          1           0       -3.333929   -0.835770    0.000000
      6          1           0       -1.733082   -1.759525    0.000000
 ---------------------------------------------------------------------
                    Distance matrix (angstroms):
                    1          2          3          4          5
     1  C    0.000000
     2  H    1.083544   0.000000
     3  H    1.083534   1.848251   0.000000
     4  C    1.329891   2.108873   2.108890   0.000000
     5  H    2.108873   3.078022   2.461348   1.083544   0.000000
     6  H    2.108890   2.461348   3.078037   1.083534   1.848251
                    6
     6  H    0.000000
 Stoichiometry    C2H4
 Framework group  C2H[SGH(C2H4)]
 Deg. of freedom     5
 Full point group                 C2H     NOp   4
 Largest Abelian subgroup         C2H     NOp   4
 Largest concise Abelian subgroup C2      NOp   2
                         Standard orientation:                         
 ---------------------------------------------------------------------
 Center     Atomic      Atomic             Coordinates (Angstroms)
 Number     Number       Type             X           Y           Z
 ---------------------------------------------------------------------
      1          6           0        0.000000    0.664945    0.000000
      2          1           0        0.924143    1.230656    0.000000
      3          1           0       -0.924108    1.230692    0.000000
      4          6           0        0.000000   -0.664945    0.000000
      5          1           0       -0.924143   -1.230656    0.000000
      6          1           0        0.924108   -1.230692    0.000000
 ---------------------------------------------------------------------
 Rotational constants (GHZ):    146.7945794     30.2309061     25.0683292

 **********************************************************************

            Population analysis using the SCF density.

 **********************************************************************

 Orbital symmetries:
       Occupied  (AG) (BU) (AG) (BU) (BU) (AG) (AG) (AU)
       Virtual   (BG) (AG) (BU) (BU) (AU) (AG) (AG) (BG) (BU) (AG)
                 (BU) (BU) (BU) (AG) (AG) (BU) (AU) (BG) (BU) (AG)
                 (BU) (AG) (AG) (BU) (BU) (AG) (BG) (AU) (AU) (AG)
                 (BU) (AG) (AG) (BU) (BG) (BU) (AU) (BG) (BU) (BG)
                 (AU) (AG) (AG) (BU) (AG) (BU) (BU) (AG) (AG) (BU)
 The electronic state is 1-AG.
 Alpha  occ. eigenvalues --  -10.57926 -10.57806  -0.87154  -0.67225  -0.55040
 Alpha  occ. eigenvalues --   -0.49224  -0.42508  -0.33571
 Alpha virt. eigenvalues --    0.03878   0.06935   0.07629   0.09198   0.11116
 Alpha virt. eigenvalues --    0.12868   0.13319   0.17755   0.20430   0.23725
 Alpha virt. eigenvalues --    0.25313   0.31076   0.40868   0.41442   0.62545
 Alpha virt. eigenvalues --    0.70641   0.74529   0.79824   0.84361   0.86881
 Alpha virt. eigenvalues --    0.98181   1.01387   1.05814   1.10012   1.22355
 Alpha virt. eigenvalues --    1.27693   1.46601   1.46777   1.61705   1.93253
 Alpha virt. eigenvalues --    2.01763   2.07233   2.12015   2.15526   2.22573
 Alpha virt. eigenvalues --    2.30282   2.42341   2.49467   2.60161   2.65719
 Alpha virt. eigenvalues --    2.72288   2.76079   2.79707   3.05490   3.22676
 Alpha virt. eigenvalues --    3.40485   3.54064   3.84888   4.28675   4.56303
          Condensed to atoms (all electrons):
              1          2          3          4          5          6
     1  C    4.857051   0.389953   0.389955   0.708941  -0.024808  -0.024807
     2  H    0.389953   0.522269  -0.032121  -0.024808   0.003849  -0.007283
     3  H    0.389955  -0.032121   0.522263  -0.024807  -0.007283   0.003849
     4  C    0.708941  -0.024808  -0.024807   4.857051   0.389953   0.389955
     5  H   -0.024808   0.003849  -0.007283   0.389953   0.522269  -0.032121
     6  H   -0.024807  -0.007283   0.003849   0.389955  -0.032121   0.522263
 Mulliken atomic charges:
              1
     1  C   -0.296284
     2  H    0.148140
     3  H    0.148144
     4  C   -0.296284
     5  H    0.148140
     6  H    0.148144
 Sum of Mulliken atomic charges =   0.00000
 Mulliken charges with hydrogens summed into heavy atoms:
              1
     1  C    0.000000
     4  C    0.000000
 Sum of Mulliken charges with hydrogens summed into heavy atoms =   0.00000
 Electronic spatial extent (au):  <R**2>=             82.7675
 Charge=              0.0000 electrons
 Dipole moment (field-independent basis, Debye):
    X=              0.0000    Y=              0.0000    Z=              0.0000  Tot=              0.0000
 Quadrupole moment (field-independent basis, Debye-Ang):
   XX=            -12.2031   YY=            -12.1727   ZZ=            -15.9574
   XY=             -0.0001   XZ=              0.0000   YZ=              0.0000
 Traceless Quadrupole moment (field-independent basis, Debye-Ang):
   XX=              1.2413   YY=              1.2717   ZZ=             -2.5130
   XY=             -0.0001   XZ=              0.0000   YZ=              0.0000
 Octapole moment (field-independent basis, Debye-Ang**2):
  XXX=              0.0000  YYY=              0.0000  ZZZ=              0.0000  XYY=              0.0000
  XXY=              0.0000  XXZ=              0.0000  XZZ=              0.0000  YZZ=              0.0000
  YYZ=              0.0000  XYZ=              0.0000
 Hexadecapole moment (field-independent basis, Debye-Ang**3):
 XXXX=            -27.2832 YYYY=            -68.9597 ZZZZ=            -21.0977 XXXY=             -0.0001
 XXXZ=              0.0000 YYYX=             -0.0006 YYYZ=              0.0000 ZZZX=              0.0000
 ZZZY=              0.0000 XXYY=            -13.2760 XXZZ=             -8.7649 YYZZ=            -16.1233
 XXYZ=              0.0000 YYXZ=              0.0000 ZZXY=             -0.0001
 N-N= 3.341458034255D+01 E-N=-2.480943671749D+02  KE= 7.778501102885D+01
 Symmetry AG   KE= 3.953354126596D+01
 Symmetry BG   KE=-1.805570250089D-34
 Symmetry AU   KE= 1.998372700009D+00
 Symmetry BU   KE= 3.625309706289D+01
 1|1|UNPC-DESKTOP-319GPER|FOpt|RM052X|6-31+G(d,p)|C2H4|SAGAD|17-Jan-202
 1|0||# opt freq=noraman 6-31+g(d,p) m052x||Ethene M052x||0,1|C,-3.4809
 520292,-2.939511755,0.|H,-2.9632743176,-3.8913932693,0.|H,-4.564120559
 7,-2.9676378237,0.|C,-2.8162508808,-1.787651535,0.|H,-3.3339285924,-0.
 8357700207,0.|H,-1.7330823503,-1.7595254663,0.||Version=IA32W-G09RevA.
 02|State=1-AG|HF=-78.5757019|RMSD=6.013e-009|RMSF=4.398e-005|Dipole=0.
 ,0.,0.|Quadrupole=0.9286039,0.9397624,-1.8683663,0.0097965,0.,0.|PG=C0
 2H [SGH(C2H4)]||@


 "ANNA, YOU MUSN'T SPEAK OF OXIDIZED MURIATIC ACID
 ANYMORE, FROM NOW ON YOU MUST SAY CHLORINE."
   -- JENS JACOB BERZELIUS, IN 1820, TO HIS COOK, WHO HAD
 COMPLAINED OF THE SMELL OF THE FLASK SHE WAS CLEANING.
 Job cpu time:  0 days  0 hours  0 minutes  7.0 seconds.
 File lengths (MBytes):  RWF=      5 Int=      0 D2E=      0 Chk=      1 Scr=      1
 Normal termination of Gaussian 09 at Sun Jan 17 13:00:09 2021.
 Link1:  Proceeding to internal job step number  2.
 ----------------------------------------------------------------------
 #N Geom=AllCheck Guess=TCheck SCRF=Check GenChk RM052X/6-31+G(d,p) Fre
 q
 ----------------------------------------------------------------------
 1/10=4,29=7,30=1,38=1,40=1/1,3;
 2/12=2,40=1/2;
 3/5=1,6=6,7=111,11=2,14=-4,16=1,25=1,30=1,70=2,71=2,74=-38,116=1/1,2,3;
 4/5=101/1;
 5/5=2,98=1/2;
 8/6=4,10=90,11=11/1;
 11/6=1,8=1,9=11,15=111,16=1/1,2,10;
 10/6=1/2;
 6/7=2,8=2,9=2,10=2,18=1,28=1/1;
 7/8=1,10=1,25=1/1,2,3,16;
 1/10=4,30=1/3;
 99//99;
 ------------
 Ethene M052x
 ------------
 Redundant internal coordinates taken from checkpoint file:
 D:\Documents\rayGit\FQ\quimicaComputacional\p3Eteno\reactivos\etheneM052x.chk
 Charge =  0 Multiplicity = 1
 C,0,-3.4809520292,-2.939511755,0.
 H,0,-2.9632743176,-3.8913932693,0.
 H,0,-4.5641205597,-2.9676378237,0.
 C,0,-2.8162508808,-1.787651535,0.
 H,0,-3.3339285924,-0.8357700207,0.
 H,0,-1.7330823503,-1.7595254663,0.
 Recover connectivity data from disk.

 GradGradGradGradGradGradGradGradGradGradGradGradGradGradGradGradGradGrad
 Berny optimization.
 Initialization pass.
                           ----------------------------
                           !    Initial Parameters    !
                           ! (Angstroms and Degrees)  !
 --------------------------                            --------------------------
 ! Name  Definition              Value          Derivative Info.                !
 --------------------------------------------------------------------------------
 ! R1    R(1,2)                  1.0835         calculate D2E/DX2 analytically  !
 ! R2    R(1,3)                  1.0835         calculate D2E/DX2 analytically  !
 ! R3    R(1,4)                  1.3299         calculate D2E/DX2 analytically  !
 ! R4    R(4,5)                  1.0835         calculate D2E/DX2 analytically  !
 ! R5    R(4,6)                  1.0835         calculate D2E/DX2 analytically  !
 ! A1    A(2,1,3)              117.052          calculate D2E/DX2 analytically  !
 ! A2    A(2,1,4)              121.4727         calculate D2E/DX2 analytically  !
 ! A3    A(3,1,4)              121.4753         calculate D2E/DX2 analytically  !
 ! A4    A(1,4,5)              121.4727         calculate D2E/DX2 analytically  !
 ! A5    A(1,4,6)              121.4753         calculate D2E/DX2 analytically  !
 ! A6    A(5,4,6)              117.052          calculate D2E/DX2 analytically  !
 ! D1    D(2,1,4,5)            180.0            calculate D2E/DX2 analytically  !
 ! D2    D(2,1,4,6)              0.0            calculate D2E/DX2 analytically  !
 ! D3    D(3,1,4,5)              0.0            calculate D2E/DX2 analytically  !
 ! D4    D(3,1,4,6)            180.0            calculate D2E/DX2 analytically  !
 --------------------------------------------------------------------------------
 Trust Radius=3.00D-01 FncErr=1.00D-07 GrdErr=1.00D-07
 Number of steps in this run=   2 maximum allowed number of steps=   2.
 GradGradGradGradGradGradGradGradGradGradGradGradGradGradGradGradGradGrad

                          Input orientation:                          
 ---------------------------------------------------------------------
 Center     Atomic      Atomic             Coordinates (Angstroms)
 Number     Number       Type             X           Y           Z
 ---------------------------------------------------------------------
      1          6           0       -3.480952   -2.939512    0.000000
      2          1           0       -2.963274   -3.891393    0.000000
      3          1           0       -4.564121   -2.967638    0.000000
      4          6           0       -2.816251   -1.787652    0.000000
      5          1           0       -3.333929   -0.835770    0.000000
      6          1           0       -1.733082   -1.759525    0.000000
 ---------------------------------------------------------------------
                    Distance matrix (angstroms):
                    1          2          3          4          5
     1  C    0.000000
     2  H    1.083544   0.000000
     3  H    1.083534   1.848251   0.000000
     4  C    1.329891   2.108873   2.108890   0.000000
     5  H    2.108873   3.078022   2.461348   1.083544   0.000000
     6  H    2.108890   2.461348   3.078037   1.083534   1.848251
                    6
     6  H    0.000000
 Stoichiometry    C2H4
 Framework group  C2H[SGH(C2H4)]
 Deg. of freedom     5
 Full point group                 C2H     NOp   4
 Largest Abelian subgroup         C2H     NOp   4
 Largest concise Abelian subgroup C2      NOp   2
                         Standard orientation:                         
 ---------------------------------------------------------------------
 Center     Atomic      Atomic             Coordinates (Angstroms)
 Number     Number       Type             X           Y           Z
 ---------------------------------------------------------------------
      1          6           0        0.000000    0.664945    0.000000
      2          1           0        0.924143    1.230656    0.000000
      3          1           0       -0.924108    1.230692    0.000000
      4          6           0        0.000000   -0.664945    0.000000
      5          1           0       -0.924143   -1.230656    0.000000
      6          1           0        0.924108   -1.230692    0.000000
 ---------------------------------------------------------------------
 Rotational constants (GHZ):    146.7945794     30.2309061     25.0683292
 Standard basis: 6-31+G(d,p) (6D, 7F)
 There are    22 symmetry adapted basis functions of AG  symmetry.
 There are     7 symmetry adapted basis functions of BG  symmetry.
 There are     7 symmetry adapted basis functions of AU  symmetry.
 There are    22 symmetry adapted basis functions of BU  symmetry.
 Integral buffers will be    262144 words long.
 Raffenetti 2 integral format.
 Two-electron integral symmetry is turned on.
    58 basis functions,    92 primitive gaussians,    58 cartesian basis functions
     8 alpha electrons        8 beta electrons
       nuclear repulsion energy        33.4145803426 Hartrees.
 NAtoms=    6 NActive=    6 NUniq=    3 SFac= 3.00D+00 NAtFMM=   80 NAOKFM=F Big=F
 One-electron integrals computed using PRISM.
 NBasis=    58 RedAO= T  NBF=    22     7     7    22
 NBsUse=    58 1.00D-06 NBFU=    22     7     7    22
 Initial guess read from the checkpoint file:  D:\Documents\rayGit\FQ\quimicaComp
 utacional\p3Eteno\reactivos\etheneM052x.chk
 B after Tr=     0.000000    0.000000    0.000000
         Rot=    1.000000    0.000000    0.000000    0.000000 Ang=   0.00 deg.
 Initial guess orbital symmetries:
       Occupied  (AG) (BU) (AG) (BU) (BU) (AG) (AG) (AU)
       Virtual   (BG) (AG) (BU) (BU) (AU) (AG) (AG) (BG) (BU) (AG)
                 (BU) (BU) (BU) (AG) (AG) (BU) (AU) (BG) (BU) (AG)
                 (BU) (AG) (AG) (BU) (BU) (AG) (BG) (AU) (AU) (AG)
                 (BU) (AG) (AG) (BU) (BG) (BU) (AU) (BG) (BU) (BG)
                 (AU) (AG) (AG) (BU) (AG) (BU) (BU) (AG) (AG) (BU)
 Requested convergence on RMS density matrix=1.00D-08 within 128 cycles.
 Requested convergence on MAX density matrix=1.00D-06.
 Requested convergence on             energy=1.00D-06.
 No special actions if energy rises.
 Keep R1 ints in memory in canonical form, NReq=2417035.
 SCF Done:  E(RM052X) =  -78.5757018720     A.U. after    1 cycles
             Convg  =    0.4823D-09             -V/T =  2.0102
 Range of M.O.s used for correlation:     1    58
 NBasis=    58 NAE=     8 NBE=     8 NFC=     0 NFV=     0
 NROrb=     58 NOA=     8 NOB=     8 NVA=    50 NVB=    50

 **** Warning!!: The largest alpha MO coefficient is  0.37314184D+02

 Symmetrizing basis deriv contribution to polar:
 IMax=3 JMax=2 DiffMx= 0.00D+00
 G2DrvN: will do     7 centers at a time, making    1 passes doing MaxLOS=2.
 Calling FoFCou, ICntrl=  3107 FMM=F I1Cent=   0 AccDes= 0.00D+00.
 FoFDir/FoFCou used for L=0 through L=2.
 End of G2Drv Frequency-dependent properties file   721 does not exist.
 End of G2Drv Frequency-dependent properties file   722 does not exist.
          IDoAtm=111111
          Differentiating once with respect to electric field.
                with respect to dipole field.
          Differentiating once with respect to nuclear coordinates.
          Keep R1 ints in memory in canonical form, NReq=2286014.
          There are    12 degrees of freedom in the 1st order CPHF.  IDoFFX=4.
     12 vectors produced by pass  0 Test12= 3.33D-15 8.33D-09 XBig12= 1.98D+01 3.68D+00.
 AX will form    12 AO Fock derivatives at one time.
     12 vectors produced by pass  1 Test12= 3.33D-15 8.33D-09 XBig12= 2.55D+00 6.49D-01.
     12 vectors produced by pass  2 Test12= 3.33D-15 8.33D-09 XBig12= 1.11D-01 1.38D-01.
     12 vectors produced by pass  3 Test12= 3.33D-15 8.33D-09 XBig12= 1.03D-03 8.23D-03.
     12 vectors produced by pass  4 Test12= 3.33D-15 8.33D-09 XBig12= 7.07D-06 8.14D-04.
     12 vectors produced by pass  5 Test12= 3.33D-15 8.33D-09 XBig12= 3.25D-08 3.86D-05.
      7 vectors produced by pass  6 Test12= 3.33D-15 8.33D-09 XBig12= 1.51D-10 3.02D-06.
      3 vectors produced by pass  7 Test12= 3.33D-15 8.33D-09 XBig12= 4.23D-13 1.96D-07.
      1 vectors produced by pass  8 Test12= 3.33D-15 8.33D-09 XBig12= 2.16D-15 3.05D-08.
 Inverted reduced A of dimension    83 with in-core refinement.
 Isotropic polarizability for W=    0.000000       23.96 Bohr**3.
 End of Minotr Frequency-dependent properties file   721 does not exist.
 End of Minotr Frequency-dependent properties file   722 does not exist.

 **********************************************************************

            Population analysis using the SCF density.

 **********************************************************************

 Orbital symmetries:
       Occupied  (AG) (BU) (AG) (BU) (BU) (AG) (AG) (AU)
       Virtual   (BG) (AG) (BU) (BU) (AU) (AG) (AG) (BG) (BU) (AG)
                 (BU) (BU) (BU) (AG) (AG) (BU) (AU) (BG) (BU) (AG)
                 (BU) (AG) (AG) (BU) (BU) (AG) (BG) (AU) (AU) (AG)
                 (BU) (AG) (AG) (BU) (BG) (BU) (AU) (BG) (BU) (BG)
                 (AU) (AG) (AG) (BU) (AG) (BU) (BU) (AG) (AG) (BU)
 The electronic state is 1-AG.
 Alpha  occ. eigenvalues --  -10.57926 -10.57806  -0.87154  -0.67225  -0.55040
 Alpha  occ. eigenvalues --   -0.49224  -0.42508  -0.33571
 Alpha virt. eigenvalues --    0.03878   0.06935   0.07629   0.09198   0.11116
 Alpha virt. eigenvalues --    0.12868   0.13319   0.17755   0.20430   0.23725
 Alpha virt. eigenvalues --    0.25313   0.31076   0.40868   0.41442   0.62545
 Alpha virt. eigenvalues --    0.70641   0.74529   0.79824   0.84361   0.86881
 Alpha virt. eigenvalues --    0.98181   1.01387   1.05814   1.10012   1.22355
 Alpha virt. eigenvalues --    1.27693   1.46601   1.46777   1.61705   1.93253
 Alpha virt. eigenvalues --    2.01763   2.07233   2.12015   2.15526   2.22573
 Alpha virt. eigenvalues --    2.30282   2.42341   2.49467   2.60161   2.65719
 Alpha virt. eigenvalues --    2.72288   2.76079   2.79707   3.05490   3.22676
 Alpha virt. eigenvalues --    3.40485   3.54064   3.84888   4.28675   4.56303
          Condensed to atoms (all electrons):
              1          2          3          4          5          6
     1  C    4.857051   0.389953   0.389955   0.708941  -0.024808  -0.024807
     2  H    0.389953   0.522269  -0.032121  -0.024808   0.003849  -0.007283
     3  H    0.389955  -0.032121   0.522263  -0.024807  -0.007283   0.003849
     4  C    0.708941  -0.024808  -0.024807   4.857051   0.389953   0.389955
     5  H   -0.024808   0.003849  -0.007283   0.389953   0.522269  -0.032121
     6  H   -0.024807  -0.007283   0.003849   0.389955  -0.032121   0.522263
 Mulliken atomic charges:
              1
     1  C   -0.296284
     2  H    0.148140
     3  H    0.148144
     4  C   -0.296284
     5  H    0.148140
     6  H    0.148144
 Sum of Mulliken atomic charges =   0.00000
 Mulliken charges with hydrogens summed into heavy atoms:
              1
     1  C    0.000000
     4  C    0.000000
 Sum of Mulliken charges with hydrogens summed into heavy atoms =   0.00000
 APT atomic charges:
              1
     1  C   -0.091941
     2  H    0.045966
     3  H    0.045974
     4  C   -0.091941
     5  H    0.045966
     6  H    0.045974
 Sum of APT charges=   0.00000
 APT Atomic charges with hydrogens summed into heavy atoms:
              1
     1  C    0.000000
     2  H    0.000000
     3  H    0.000000
     4  C    0.000000
     5  H    0.000000
     6  H    0.000000
 Sum of APT charges=   0.00000
 Electronic spatial extent (au):  <R**2>=             82.7675
 Charge=              0.0000 electrons
 Dipole moment (field-independent basis, Debye):
    X=              0.0000    Y=              0.0000    Z=              0.0000  Tot=              0.0000
 Quadrupole moment (field-independent basis, Debye-Ang):
   XX=            -12.2031   YY=            -12.1727   ZZ=            -15.9574
   XY=             -0.0001   XZ=              0.0000   YZ=              0.0000
 Traceless Quadrupole moment (field-independent basis, Debye-Ang):
   XX=              1.2413   YY=              1.2717   ZZ=             -2.5130
   XY=             -0.0001   XZ=              0.0000   YZ=              0.0000
 Octapole moment (field-independent basis, Debye-Ang**2):
  XXX=              0.0000  YYY=              0.0000  ZZZ=              0.0000  XYY=              0.0000
  XXY=              0.0000  XXZ=              0.0000  XZZ=              0.0000  YZZ=              0.0000
  YYZ=              0.0000  XYZ=              0.0000
 Hexadecapole moment (field-independent basis, Debye-Ang**3):
 XXXX=            -27.2832 YYYY=            -68.9597 ZZZZ=            -21.0977 XXXY=             -0.0001
 XXXZ=              0.0000 YYYX=             -0.0006 YYYZ=              0.0000 ZZZX=              0.0000
 ZZZY=              0.0000 XXYY=            -13.2760 XXZZ=             -8.7649 YYZZ=            -16.1233
 XXYZ=              0.0000 YYXZ=              0.0000 ZZXY=             -0.0001
 N-N= 3.341458034255D+01 E-N=-2.480943673378D+02  KE= 7.778501109462D+01
 Symmetry AG   KE= 3.953354127672D+01
 Symmetry BG   KE= 1.703872531392D-33
 Symmetry AU   KE= 1.998372744602D+00
 Symmetry BU   KE= 3.625309707330D+01
  Exact polarizability:  20.781   0.000  34.092   0.000   0.000  17.000
 Approx polarizability:  20.952   0.000  38.705   0.000   0.000  17.126
 Calling FoFJK, ICntrl=    100127 FMM=F ISym2X=1 I1Cent= 0 IOpClX= 0 NMat=1 NMatS=1 NMatT=0.
 Full mass-weighted force constant matrix:
 Low frequencies --- -109.7327  -54.5023   -0.0016   -0.0014   -0.0006   20.2165
 Low frequencies ---  840.2288  997.0994 1004.4393
 Diagonal vibrational polarizability:
        0.0914519       0.1789715       3.6913894
 Harmonic frequencies (cm**-1), IR intensities (KM/Mole), Raman scattering
 activities (A**4/AMU), depolarization ratios for plane and unpolarized
 incident light, reduced masses (AMU), force constants (mDyne/A),
 and normal coordinates:
                     1                      2                      3
                    BU                     AU                     BG
 Frequencies --   840.2288               997.0994              1004.4393
 Red. masses --     1.0417                 1.1607                 1.5145
 Frc consts  --     0.4333                 0.6799                 0.9003
 IR Inten    --     1.0930               136.3746                 0.0000
  Atom  AN      X      Y      Z        X      Y      Z        X      Y      Z
     1   6    -0.04   0.00   0.00     0.00   0.00  -0.08     0.00   0.00   0.15
     2   1     0.23  -0.44   0.00     0.00   0.00   0.50     0.00   0.00  -0.49
     3   1     0.23   0.44   0.00     0.00   0.00   0.50     0.00   0.00  -0.49
     4   6    -0.04   0.00   0.00     0.00   0.00  -0.08     0.00   0.00  -0.15
     5   1     0.23  -0.44   0.00     0.00   0.00   0.50     0.00   0.00   0.49
     6   1     0.23   0.44   0.00     0.00   0.00   0.50     0.00   0.00   0.49
                     4                      5                      6
                    AU                     AG                     AG
 Frequencies --  1069.8946              1252.1515              1397.7970
 Red. masses --     1.0078                 1.5175                 1.2203
 Frc consts  --     0.6797                 1.4019                 1.4048
 IR Inten    --     0.0000                 0.0000                 0.0000
  Atom  AN      X      Y      Z        X      Y      Z        X      Y      Z
     1   6     0.00   0.00   0.00     0.15   0.00   0.00     0.00   0.10   0.00
     2   1     0.00   0.00   0.50    -0.14   0.47   0.00    -0.19   0.46   0.00
     3   1     0.00   0.00  -0.50    -0.14  -0.47   0.00     0.19   0.46   0.00
     4   6     0.00   0.00   0.00    -0.15   0.00   0.00     0.00  -0.10   0.00
     5   1     0.00   0.00   0.50     0.14  -0.47   0.00     0.19  -0.46   0.00
     6   1     0.00   0.00  -0.50     0.14   0.47   0.00    -0.19  -0.46   0.00
                     7                      8                      9
                    BU                     AG                     BU
 Frequencies --  1491.7609              1730.8741              3193.2423
 Red. masses --     1.1126                 3.1519                 1.0471
 Frc consts  --     1.4588                 5.5636                 6.2909
 IR Inten    --    11.8932                 0.0000                13.3174
  Atom  AN      X      Y      Z        X      Y      Z        X      Y      Z
     1   6     0.00   0.07   0.00     0.00   0.31   0.00     0.00  -0.04   0.00
     2   1     0.28  -0.41   0.00     0.38  -0.24   0.00     0.43   0.25   0.00
     3   1    -0.28  -0.41   0.00    -0.38  -0.24   0.00    -0.43   0.25   0.00
     4   6     0.00   0.07   0.00     0.00  -0.31   0.00     0.00  -0.04   0.00
     5   1     0.28  -0.41   0.00    -0.38   0.24   0.00     0.43   0.25   0.00
     6   1    -0.28  -0.41   0.00     0.38   0.24   0.00    -0.43   0.25   0.00
                    10                     11                     12
                    AG                     AG                     BU
 Frequencies --  3208.7713              3275.8100              3300.1298
 Red. masses --     1.0740                 1.1173                 1.1188
 Frc consts  --     6.5153                 7.0640                 7.1789
 IR Inten    --     0.0000                 0.0000                20.1488
  Atom  AN      X      Y      Z        X      Y      Z        X      Y      Z
     1   6     0.00   0.05   0.00    -0.07   0.00   0.00     0.07   0.00   0.00
     2   1    -0.43  -0.25   0.00     0.42   0.26   0.00    -0.42  -0.26   0.00
     3   1     0.43  -0.25   0.00     0.42  -0.26   0.00    -0.42   0.26   0.00
     4   6     0.00  -0.05   0.00     0.07   0.00   0.00     0.07   0.00   0.00
     5   1     0.43   0.25   0.00    -0.42  -0.26   0.00    -0.42  -0.26   0.00
     6   1    -0.43   0.25   0.00    -0.42   0.26   0.00    -0.42   0.26   0.00

 -------------------
 - Thermochemistry -
 -------------------
 Temperature   298.150 Kelvin.  Pressure   1.00000 Atm.
 Atom     1 has atomic number  6 and mass  12.00000
 Atom     2 has atomic number  1 and mass   1.00783
 Atom     3 has atomic number  1 and mass   1.00783
 Atom     4 has atomic number  6 and mass  12.00000
 Atom     5 has atomic number  1 and mass   1.00783
 Atom     6 has atomic number  1 and mass   1.00783
 Molecular mass:    28.03130 amu.
 Principal axes and moments of inertia in atomic units:
                           1         2         3
     Eigenvalues --    12.29433  59.69855  71.99288
           X            0.00000   1.00000   0.00000
           Y            1.00000   0.00000   0.00000
           Z            0.00000   0.00000   1.00000
 This molecule is an asymmetric top.
 Rotational symmetry number  2.
 Rotational temperatures (Kelvin)      7.04502     1.45085     1.20309
 Rotational constants (GHZ):         146.79458    30.23091    25.06833
 Zero-point vibrational energy     136148.2 (Joules/Mol)
                                   32.54020 (Kcal/Mol)
 Vibrational temperatures:   1208.90  1434.60  1445.16  1539.34  1801.56
          (Kelvin)           2011.12  2146.31  2490.34  4594.36  4616.70
                             4713.15  4748.14
 
 Zero-point correction=                           0.051856 (Hartree/Particle)
 Thermal correction to Energy=                    0.054886
 Thermal correction to Enthalpy=                  0.055830
 Thermal correction to Gibbs Free Energy=         0.030334
 Sum of electronic and zero-point Energies=            -78.523846
 Sum of electronic and thermal Energies=               -78.520816
 Sum of electronic and thermal Enthalpies=             -78.519872
 Sum of electronic and thermal Free Energies=          -78.545367
 
                     E (Thermal)             CV                S
                      KCal/Mol        Cal/Mol-Kelvin    Cal/Mol-Kelvin
 Total                   34.441              7.998             53.660
 Electronic               0.000              0.000              0.000
 Translational            0.889              2.981             35.927
 Rotational               0.889              2.981             17.231
 Vibrational             32.664              2.036              0.502
                       Q            Log10(Q)             Ln(Q)
 Total Bot       0.111467D-13        -13.952853        -32.127632
 Total V=0       0.792954D+10          9.899248         22.793861
 Vib (Bot)       0.146869D-23        -23.833069        -54.877670
 Vib (V=0)       0.104480D+01          0.019032          0.043824
 Electronic      0.100000D+01          0.000000          0.000000
 Translational   0.583338D+07          6.765920         15.579107
 Rotational      0.130105D+04          3.114296          7.170930
 ***** Axes restored to original set *****
 -------------------------------------------------------------------
 Center     Atomic                   Forces (Hartrees/Bohr)
 Number     Number              X              Y              Z
 -------------------------------------------------------------------
      1        6          -0.000054241   -0.000118070    0.000000000
      2        1          -0.000011310    0.000015540    0.000000000
      3        1           0.000012488    0.000000812    0.000000000
      4        6           0.000054241    0.000118070    0.000000000
      5        1           0.000011310   -0.000015540    0.000000000
      6        1          -0.000012488   -0.000000812    0.000000000
 -------------------------------------------------------------------
 Cartesian Forces:  Max     0.000118070 RMS     0.000043980

 GradGradGradGradGradGradGradGradGradGradGradGradGradGradGradGradGradGrad
 Berny optimization.
 Internal  Forces:  Max     0.000114623 RMS     0.000030790
 Search for a local minimum.
 Step number   1 out of a maximum of    2
 All quantities printed in internal units (Hartrees-Bohrs-Radians)
 Second derivative matrix not updated -- analytic derivatives used.
 The second derivative matrix:
                          R1        R2        R3        R4        R5
           R1           0.37115
           R2           0.00195   0.37118
           R3           0.00609   0.00609   0.65787
           R4          -0.00058   0.00070   0.00609   0.37115
           R5           0.00070  -0.00058   0.00609   0.00195   0.37118
           A1           0.00673   0.00673  -0.02119  -0.00109  -0.00109
           A2           0.00409  -0.01082   0.01060   0.00444  -0.00335
           A3          -0.01082   0.00408   0.01060  -0.00335   0.00444
           A4           0.00444  -0.00335   0.01060   0.00409  -0.01082
           A5          -0.00335   0.00444   0.01060  -0.01082   0.00408
           A6          -0.00109  -0.00109  -0.02119   0.00673   0.00673
           D1           0.00000   0.00000   0.00000   0.00000   0.00000
           D2           0.00000   0.00000   0.00000   0.00000   0.00000
           D3           0.00000   0.00000   0.00000   0.00000   0.00000
           D4           0.00000   0.00000   0.00000   0.00000   0.00000
                          A1        A2        A3        A4        A5
           A1           0.07402
           A2          -0.03701   0.08260
           A3          -0.03701  -0.04559   0.08260
           A4          -0.00156   0.01063  -0.00908   0.08260
           A5          -0.00155  -0.00908   0.01063  -0.04559   0.08260
           A6           0.00311  -0.00156  -0.00155  -0.03701  -0.03701
           D1           0.00000   0.00000   0.00000   0.00000   0.00000
           D2           0.00000   0.00000   0.00000   0.00000   0.00000
           D3           0.00000   0.00000   0.00000   0.00000   0.00000
           D4           0.00000   0.00000   0.00000   0.00000   0.00000
                          A6        D1        D2        D3        D4
           A6           0.07402
           D1           0.00000   0.03307
           D2           0.00000   0.00832   0.02690
           D3           0.00000   0.00832  -0.01026   0.02690
           D4           0.00000  -0.01643   0.00832   0.00832   0.03307
     Eigenvalues ---    0.03328   0.03715   0.04949   0.10568   0.10828
     Eigenvalues ---    0.11280   0.14559   0.37025   0.37068   0.37321
     Eigenvalues ---    0.37368   0.660801000.000001000.000001000.00000
 Angle between quadratic step and forces=  20.03 degrees.
 Linear search not attempted -- first point.
 Iteration  1 RMS(Cart)=  0.00004239 RMS(Int)=  0.00000000
 Iteration  2 RMS(Cart)=  0.00000000 RMS(Int)=  0.00000000
 ClnCor:  largest displacement from symmetrization is 4.50D-13 for atom     5.
 Variable       Old X    -DE/DX   Delta X   Delta X   Delta X     New X
                                 (Linear)    (Quad)   (Total)
    R1        2.04760  -0.00002   0.00000  -0.00006  -0.00006   2.04755
    R2        2.04758  -0.00001   0.00000  -0.00004  -0.00004   2.04755
    R3        2.51313   0.00011   0.00000   0.00018   0.00018   2.51331
    R4        2.04760  -0.00002   0.00000  -0.00006  -0.00006   2.04755
    R5        2.04758  -0.00001   0.00000  -0.00004  -0.00004   2.04755
    A1        2.04294   0.00000   0.00000   0.00003   0.00003   2.04297
    A2        2.12010   0.00000   0.00000   0.00001   0.00001   2.12011
    A3        2.12014   0.00000   0.00000  -0.00003  -0.00003   2.12011
    A4        2.12010   0.00000   0.00000   0.00001   0.00001   2.12011
    A5        2.12014   0.00000   0.00000  -0.00003  -0.00003   2.12011
    A6        2.04294   0.00000   0.00000   0.00003   0.00003   2.04297
    D1        3.14159   0.00000   0.00000   0.00000   0.00000   3.14159
    D2        0.00000   0.00000   0.00000   0.00000   0.00000   0.00000
    D3        0.00000   0.00000   0.00000   0.00000   0.00000   0.00000
    D4        3.14159   0.00000   0.00000   0.00000   0.00000   3.14159
         Item               Value     Threshold  Converged?
 Maximum Force            0.000115     0.000450     YES
 RMS     Force            0.000031     0.000300     YES
 Maximum Displacement     0.000086     0.001800     YES
 RMS     Displacement     0.000042     0.001200     YES
 Predicted change in Energy=-1.181852D-08
 Optimization completed.
    -- Stationary point found.
                           ----------------------------
                           !   Optimized Parameters   !
                           ! (Angstroms and Degrees)  !
 --------------------------                            --------------------------
 ! Name  Definition              Value          Derivative Info.                !
 --------------------------------------------------------------------------------
 ! R1    R(1,2)                  1.0835         -DE/DX =    0.0                 !
 ! R2    R(1,3)                  1.0835         -DE/DX =    0.0                 !
 ! R3    R(1,4)                  1.3299         -DE/DX =    0.0001              !
 ! R4    R(4,5)                  1.0835         -DE/DX =    0.0                 !
 ! R5    R(4,6)                  1.0835         -DE/DX =    0.0                 !
 ! A1    A(2,1,3)              117.052          -DE/DX =    0.0                 !
 ! A2    A(2,1,4)              121.4727         -DE/DX =    0.0                 !
 ! A3    A(3,1,4)              121.4753         -DE/DX =    0.0                 !
 ! A4    A(1,4,5)              121.4727         -DE/DX =    0.0                 !
 ! A5    A(1,4,6)              121.4753         -DE/DX =    0.0                 !
 ! A6    A(5,4,6)              117.052          -DE/DX =    0.0                 !
 ! D1    D(2,1,4,5)            180.0            -DE/DX =    0.0                 !
 ! D2    D(2,1,4,6)              0.0            -DE/DX =    0.0                 !
 ! D3    D(3,1,4,5)              0.0            -DE/DX =    0.0                 !
 ! D4    D(3,1,4,6)            180.0            -DE/DX =    0.0                 !
 --------------------------------------------------------------------------------
 GradGradGradGradGradGradGradGradGradGradGradGradGradGradGradGradGradGrad

 1|1|UNPC-DESKTOP-319GPER|Freq|RM052X|6-31+G(d,p)|C2H4|SAGAD|17-Jan-202
 1|0||#N Geom=AllCheck Guess=TCheck SCRF=Check GenChk RM052X/6-31+G(d,p
 ) Freq||Ethene M052x||0,1|C,-3.4809520292,-2.939511755,0.|H,-2.9632743
 176,-3.8913932693,0.|H,-4.5641205597,-2.9676378237,0.|C,-2.8162508808,
 -1.787651535,0.|H,-3.3339285924,-0.8357700207,0.|H,-1.7330823503,-1.75
 95254663,0.||Version=IA32W-G09RevA.02|State=1-AG|HF=-78.5757019|RMSD=4
 .823e-010|RMSF=4.398e-005|ZeroPoint=0.0518561|Thermal=0.0548858|Dipole
 =0.,0.,0.|DipoleDeriv=0.0681261,-0.055944,0.,-0.0559417,0.0034824,0.,0
 .,0.,-0.3474304,0.0220609,0.0747872,0.,0.0460375,-0.057877,0.,0.,0.,0.
 1737145,-0.0901869,-0.0188433,0.,0.0099041,0.0543945,0.,0.,0.,0.173715
 9,0.0681261,-0.055944,0.,-0.0559417,0.0034825,0.,0.,0.,-0.3474304,0.02
 20609,0.0747872,0.,0.0460375,-0.057877,0.,0.,0.,0.1737145,-0.0901869,-
 0.0188433,0.,0.0099041,0.0543945,0.,0.,0.,0.1737159|Polar=24.1059461,5
 .7621606,30.7665992,0.,0.,16.9997767|PG=C02H [SGH(C2H4)]|NImag=0||0.72
 103873,0.09961798,0.83613448,0.,0.,0.11575738,-0.13204804,0.12788521,0
 .,0.12836481,0.12344885,-0.28008145,0.,-0.13343814,0.29789279,0.,0.,-0
 .03890745,0.,0.,0.02501123,-0.35193336,-0.00362133,0.,-0.00902491,-0.0
 0250098,0.,0.37109413,0.00081465,-0.06022349,0.,0.02527503,0.00413731,
 0.,0.00683495,0.05518830,0.,0.,-0.03890339,0.,0.,0.00341059,0.,0.,0.02
 500817,-0.23737949,-0.20922823,0.,0.01231192,0.01593981,0.,-0.01198976
 ,-0.03059306,0.,0.72103873,-0.20922823,-0.47921104,0.,-0.01654776,-0.0
 2046123,0.,0.00189414,0.00384272,0.,0.09961798,0.83613448,0.,0.,-0.050
 82647,0.,0.,0.00644047,0.,0.,0.00643945,0.,0.,0.11575738,0.01231192,-0
 .01654776,0.,-0.00080652,-0.00334123,0.,0.00120274,0.00016689,0.,-0.13
 204804,0.12788521,0.,0.12836481,0.01593981,-0.02046123,0.,-0.00334123,
 -0.00272420,0.,-0.00010830,0.00123677,0.,0.12344885,-0.28008145,0.,-0.
 13343814,0.29789279,0.,0.,0.00644047,0.,0.,0.01305176,0.,0.,-0.0090066
 0,0.,0.,-0.03890745,0.,0.,0.02501123,-0.01198976,0.00189414,0.,0.00120
 274,-0.00010830,0.,0.00065116,-0.00249847,0.,-0.35193336,-0.00362133,0
 .,-0.00902491,-0.00250098,0.,0.37109413,-0.03059306,0.00384272,0.,0.00
 016689,0.00123677,0.,-0.00249847,-0.00418160,0.,0.00081465,-0.06022349
 ,0.,0.02527503,0.00413731,0.,0.00683495,0.05518830,0.,0.,0.00643945,0.
 ,0.,-0.00900660,0.,0.,0.01305177,0.,0.,-0.03890339,0.,0.,0.00341059,0.
 ,0.,0.02500817||0.00005424,0.00011807,0.,0.00001131,-0.00001554,0.,-0.
 00001249,-0.00000081,0.,-0.00005424,-0.00011807,0.,-0.00001131,0.00001
 554,0.,0.00001249,0.00000081,0.|||@


 "ANNA, YOU MUSN'T SPEAK OF OXIDIZED MURIATIC ACID
 ANYMORE, FROM NOW ON YOU MUST SAY CHLORINE."
   -- JENS JACOB BERZELIUS, IN 1820, TO HIS COOK, WHO HAD
 COMPLAINED OF THE SMELL OF THE FLASK SHE WAS CLEANING.
 Job cpu time:  0 days  0 hours  0 minutes  6.0 seconds.
 File lengths (MBytes):  RWF=      5 Int=      0 D2E=      0 Chk=      1 Scr=      1
 Normal termination of Gaussian 09 at Sun Jan 17 13:00:15 2021.
