 Entering Link 1 = C:\G09W\l1.exe PID=      3172.
  
 Copyright (c) 1988,1990,1992,1993,1995,1998,2003,2009, Gaussian, Inc.
                  All Rights Reserved.
  
 This is part of the Gaussian(R) 09 program.  It is based on
 the Gaussian(R) 03 system (copyright 2003, Gaussian, Inc.),
 the Gaussian(R) 98 system (copyright 1998, Gaussian, Inc.),
 the Gaussian(R) 94 system (copyright 1995, Gaussian, Inc.),
 the Gaussian 92(TM) system (copyright 1992, Gaussian, Inc.),
 the Gaussian 90(TM) system (copyright 1990, Gaussian, Inc.),
 the Gaussian 88(TM) system (copyright 1988, Gaussian, Inc.),
 the Gaussian 86(TM) system (copyright 1986, Carnegie Mellon
 University), and the Gaussian 82(TM) system (copyright 1983,
 Carnegie Mellon University). Gaussian is a federally registered
 trademark of Gaussian, Inc.
  
 This software contains proprietary and confidential information,
 including trade secrets, belonging to Gaussian, Inc.
  
 This software is provided under written license and may be
 used, copied, transmitted, or stored only in accord with that
 written license.
  
 The following legend is applicable only to US Government
 contracts under FAR:
  
                    RESTRICTED RIGHTS LEGEND
  
 Use, reproduction and disclosure by the US Government is
 subject to restrictions as set forth in subparagraphs (a)
 and (c) of the Commercial Computer Software - Restricted
 Rights clause in FAR 52.227-19.
  
 Gaussian, Inc.
 340 Quinnipiac St., Bldg. 40, Wallingford CT 06492
  
  
 ---------------------------------------------------------------
 Warning -- This program may not be used in any manner that
 competes with the business of Gaussian, Inc. or will provide
 assistance to any competitor of Gaussian, Inc.  The licensee
 of this program is prohibited from giving any competitor of
 Gaussian, Inc. access to this program.  By using this program,
 the user acknowledges that Gaussian, Inc. is engaged in the
 business of creating and licensing software in the field of
 computational chemistry and represents and warrants to the
 licensee that it is not a competitor of Gaussian, Inc. and that
 it will not use this program in any manner prohibited above.
 ---------------------------------------------------------------
  

 Cite this work as:
 Gaussian 09, Revision A.02,
 M. J. Frisch, G. W. Trucks, H. B. Schlegel, G. E. Scuseria, 
 M. A. Robb, J. R. Cheeseman, G. Scalmani, V. Barone, B. Mennucci, 
 G. A. Petersson, H. Nakatsuji, M. Caricato, X. Li, H. P. Hratchian, 
 A. F. Izmaylov, J. Bloino, G. Zheng, J. L. Sonnenberg, M. Hada, 
 M. Ehara, K. Toyota, R. Fukuda, J. Hasegawa, M. Ishida, T. Nakajima, 
 Y. Honda, O. Kitao, H. Nakai, T. Vreven, J. A. Montgomery, Jr., 
 J. E. Peralta, F. Ogliaro, M. Bearpark, J. J. Heyd, E. Brothers, 
 K. N. Kudin, V. N. Staroverov, R. Kobayashi, J. Normand, 
 K. Raghavachari, A. Rendell, J. C. Burant, S. S. Iyengar, J. Tomasi, 
 M. Cossi, N. Rega, J. M. Millam, M. Klene, J. E. Knox, J. B. Cross, 
 V. Bakken, C. Adamo, J. Jaramillo, R. Gomperts, R. E. Stratmann, 
 O. Yazyev, A. J. Austin, R. Cammi, C. Pomelli, J. W. Ochterski, 
 R. L. Martin, K. Morokuma, V. G. Zakrzewski, G. A. Voth, 
 P. Salvador, J. J. Dannenberg, S. Dapprich, A. D. Daniels, 
 O. Farkas, J. B. Foresman, J. V. Ortiz, J. Cioslowski, 
 and D. J. Fox, Gaussian, Inc., Wallingford CT, 2009.
 
 ******************************************
 Gaussian 09:  IA32W-G09RevA.02 11-Jun-2009
                17-Jan-2021 
 ******************************************
 %chk=D:\Documents\rayGit\FQ\quimicaComputacional\p3Eteno\reactivos\hydroxylRadic
 alM062x.chk
 %nprocshared=4
 Will use up to    4 processors via shared memory.
 %mem=1500mb
 ------------------------------------
 # opt freq=noraman 6-31+g(d,p) M062x
 ------------------------------------
 1/14=-1,18=20,19=15,26=3,38=1/1,3;
 2/9=110,12=2,17=6,18=5,40=1/2;
 3/5=1,6=6,7=111,11=2,16=1,25=1,30=1,71=1,74=-55/1,2,3;
 4//1;
 5/5=2,38=5/2;
 6/7=2,8=2,9=2,10=2,28=1/1;
 7//1,2,3,16;
 1/14=-1,18=20,19=15/3(2);
 2/9=110/2;
 99//99;
 2/9=110/2;
 3/5=1,6=6,7=111,11=2,16=1,25=1,30=1,71=1,74=-55/1,2,3;
 4/5=5,16=3/1;
 5/5=2,38=5/2;
 7//1,2,3,16;
 1/14=-1,18=20,19=15/3(-5);
 2/9=110/2;
 6/7=2,8=2,9=2,10=2,19=2,28=1/1;
 99/9=1/99;
 ----------------------
 Hydroxyl radical M062X
 ----------------------
 Symbolic Z-matrix:
 Charge =  0 Multiplicity = 2
 O                    -2.82939  -0.18628   0. 
 H                    -3.14985   0.71865   0. 
 

 GradGradGradGradGradGradGradGradGradGradGradGradGradGradGradGradGradGrad
 Berny optimization.
 Initialization pass.
                           ----------------------------
                           !    Initial Parameters    !
                           ! (Angstroms and Degrees)  !
 --------------------------                            --------------------------
 ! Name  Definition              Value          Derivative Info.                !
 --------------------------------------------------------------------------------
 ! R1    R(1,2)                  0.96           estimate D2E/DX2                !
 --------------------------------------------------------------------------------
 Trust Radius=3.00D-01 FncErr=1.00D-07 GrdErr=1.00D-06
 Number of steps in this run=  20 maximum allowed number of steps= 100.
 GradGradGradGradGradGradGradGradGradGradGradGradGradGradGradGradGradGrad

                          Input orientation:                          
 ---------------------------------------------------------------------
 Center     Atomic      Atomic             Coordinates (Angstroms)
 Number     Number       Type             X           Y           Z
 ---------------------------------------------------------------------
      1          8           0       -2.829393   -0.186281    0.000000
      2          1           0       -3.149847    0.718654    0.000000
 ---------------------------------------------------------------------
 Stoichiometry    HO(2)
 Framework group  C*V[C*(HO)]
 Deg. of freedom     1
 Full point group                 C*V     NOp   4
 Largest Abelian subgroup         C2V     NOp   4
 Largest concise Abelian subgroup C1      NOp   1
                         Standard orientation:                         
 ---------------------------------------------------------------------
 Center     Atomic      Atomic             Coordinates (Angstroms)
 Number     Number       Type             X           Y           Z
 ---------------------------------------------------------------------
      1          8           0        0.000000    0.000000    0.106667
      2          1           0        0.000000    0.000000   -0.853333
 ---------------------------------------------------------------------
 Rotational constants (GHZ):      0.0000000    578.3977146    578.3977146
 Standard basis: 6-31+G(d,p) (6D, 7F)
 There are    13 symmetry adapted basis functions of A1  symmetry.
 There are     1 symmetry adapted basis functions of A2  symmetry.
 There are     5 symmetry adapted basis functions of B1  symmetry.
 There are     5 symmetry adapted basis functions of B2  symmetry.
 Integral buffers will be    262144 words long.
 Raffenetti 2 integral format.
 Two-electron integral symmetry is turned on.
    24 basis functions,    39 primitive gaussians,    24 cartesian basis functions
     5 alpha electrons        4 beta electrons
       nuclear repulsion energy         4.4098100853 Hartrees.
 NAtoms=    2 NActive=    2 NUniq=    2 SFac= 7.50D-01 NAtFMM=   80 NAOKFM=F Big=F
 One-electron integrals computed using PRISM.
 NBasis=    24 RedAO= T  NBF=    13     1     5     5
 NBsUse=    24 1.00D-06 NBFU=    13     1     5     5
 Harris functional with IExCor= 1009 diagonalized for initial guess.
 ExpMin= 8.45D-02 ExpMax= 5.48D+03 ExpMxC= 8.25D+02 IAcc=2 IRadAn=         0 AccDes= 0.00D+00
 HarFok:  IExCor= 1009 AccDes= 0.00D+00 IRadAn=         0 IDoV= 1
 ScaDFX=  1.000000  1.000000  1.000000  1.000000
 FoFCou: FMM=F IPFlag=           0 FMFlag=      100000 FMFlg1=           0
         NFxFlg=           0 DoJE=T BraDBF=F KetDBF=T FulRan=T
         Omega=  0.000000  0.000000  1.000000  0.000000  0.000000 ICntrl=     500 IOpCl=  0
         NMat0=    1 NMatS0=    1 NMatT0=    0 NMatD0=    1 NMtDS0=    0 NMtDT0=    0
         I1Cent=           4 NGrid=           0.
 Petite list used in FoFCou.
 Initial guess orbital symmetries:
 Alpha Orbitals:
       Occupied  (SG) (SG) (SG) (PI) (PI)
       Virtual   (SG) (SG) (PI) (PI) (SG) (SG) (PI) (PI) (SG) (SG)
                 (PI) (PI) (DLTA) (DLTA) (SG) (PI) (PI) (SG) (SG)
 Beta  Orbitals:
       Occupied  (SG) (SG) (SG) (PI)
       Virtual   (PI) (SG) (SG) (PI) (PI) (SG) (SG) (PI) (PI) (SG)
                 (SG) (PI) (PI) (DLTA) (DLTA) (SG) (PI) (PI) (SG)
                 (SG)
 Initial guess <Sx>= 0.0000 <Sy>= 0.0000 <Sz>= 0.5000 <S**2>= 0.7500 S= 0.5000
 Requested convergence on RMS density matrix=1.00D-08 within 128 cycles.
 Requested convergence on MAX density matrix=1.00D-06.
 Requested convergence on             energy=1.00D-06.
 No special actions if energy rises.
 Keep R1 and R2 ints in memory in canonical form, NReq=982356.
 Integral accuracy reduced to 1.0D-05 until final iterations.
 Initial convergence to 1.0D-05 achieved.  Increase integral accuracy.
 SCF Done:  E(UM062X) =  -75.7014965585     A.U. after   15 cycles
             Convg  =    0.2329D-08             -V/T =  2.0078
 <Sx>= 0.0000 <Sy>= 0.0000 <Sz>= 0.5000 <S**2>= 0.7528 S= 0.5014
 <L.S>= 0.000000000000E+00
 Annihilation of the first spin contaminant:
 S**2 before annihilation     0.7528,   after     0.7500

 **********************************************************************

            Population analysis using the SCF density.

 **********************************************************************

 Orbital symmetries:
 Alpha Orbitals:
       Occupied  (SG) (SG) (SG) (PI) (PI)
       Virtual   (SG) (SG) (PI) (PI) (SG) (SG) (PI) (PI) (SG) (SG)
                 (PI) (PI) (DLTA) (DLTA) (SG) (PI) (PI) (SG) (SG)
 Beta  Orbitals:
       Occupied  (SG) (SG) (SG) (?A)
       Virtual   (?A) (SG) (SG) (?A) (?A) (SG) (SG) (SG) (PI) (PI)
                 (SG) (PI) (PI) (DLTA) (DLTA) (SG) (PI) (PI) (SG)
                 (SG)
 Unable to determine electronic state:  an orbital has unidentified symmetry.
 Alpha  occ. eigenvalues --  -19.72177  -1.15101  -0.56790  -0.50377  -0.43939
 Alpha virt. eigenvalues --    0.08085   0.17114   0.17117   0.17707   0.25526
 Alpha virt. eigenvalues --    0.98841   1.12084   1.16896   1.17328   1.23716
 Alpha virt. eigenvalues --    1.56767   1.59507   1.79919   1.80060   2.42291
 Alpha virt. eigenvalues --    2.63855   2.65864   3.37347   3.79445
  Beta  occ. eigenvalues --  -19.70501  -1.06957  -0.53523  -0.40317
  Beta virt. eigenvalues --   -0.10750   0.07634   0.17058   0.18167   0.18279
  Beta virt. eigenvalues --    0.25707   1.00694   1.18217   1.18364   1.19854
  Beta virt. eigenvalues --    1.24415   1.60948   1.60981   1.84966   1.86670
  Beta virt. eigenvalues --    2.44720   2.65498   2.66307   3.38822   3.82973
          Condensed to atoms (all electrons):
              1          2
     1  O    8.124818   0.231143
     2  H    0.231143   0.412896
 Mulliken atomic charges:
              1
     1  O   -0.355961
     2  H    0.355961
 Sum of Mulliken atomic charges =   0.00000
 Mulliken charges with hydrogens summed into heavy atoms:
              1
     1  O    0.000000
 Sum of Mulliken charges with hydrogens summed into heavy atoms =   0.00000
          Atomic-Atomic Spin Densities.
              1          2
     1  O    1.025732   0.002327
     2  H    0.002327  -0.030385
 Mulliken atomic spin densities:
              1
     1  O    1.028058
     2  H   -0.028058
 Sum of Mulliken atomic spin densities =   1.00000
 Electronic spatial extent (au):  <R**2>=             15.6258
 Charge=              0.0000 electrons
 Dipole moment (field-independent basis, Debye):
    X=              0.0000    Y=              0.0000    Z=             -1.8780  Tot=              1.8780
 Quadrupole moment (field-independent basis, Debye-Ang):
   XX=             -5.5258   YY=             -6.8727   ZZ=             -4.6840
   XY=              0.0000   XZ=              0.0000   YZ=              0.0000
 Traceless Quadrupole moment (field-independent basis, Debye-Ang):
   XX=              0.1684   YY=             -1.1786   ZZ=              1.0102
   XY=              0.0000   XZ=              0.0000   YZ=              0.0000
 Octapole moment (field-independent basis, Debye-Ang**2):
  XXX=              0.0000  YYY=              0.0000  ZZZ=             -2.1466  XYY=              0.0000
  XXY=              0.0000  XXZ=             -0.2766  XZZ=              0.0000  YZZ=              0.0000
  YYZ=             -0.3973  XYZ=              0.0000
 Hexadecapole moment (field-independent basis, Debye-Ang**3):
 XXXX=             -4.0620 YYYY=             -6.2884 ZZZZ=             -5.6235 XXXY=              0.0000
 XXXZ=              0.0000 YYYX=              0.0000 YYYZ=              0.0000 ZZZX=              0.0000
 ZZZY=              0.0000 XXYY=             -1.7250 XXZZ=             -1.8323 YYZZ=             -2.2200
 XXYZ=              0.0000 YYXZ=              0.0000 ZZXY=              0.0000
 N-N= 4.409810085314D+00 E-N=-2.766850030807D+02  KE= 1.112994793632D+02
 Symmetry A1   KE= 1.018683674671D+02
 Symmetry A2   KE= 5.286210415067D-35
 Symmetry B1   KE= 2.479062740748D+00
 Symmetry B2   KE= 6.952049155414D+00
                          Isotropic Fermi Contact Couplings
        Atom                 a.u.       MegaHertz       Gauss      10(-4) cm-1
     1  O(17)              0.15553     -94.27972     -33.64135     -31.44833
     2  H(1)              -0.01523     -68.08075     -24.29290     -22.70929
 --------------------------------------------------------
       Center         ----  Spin Dipole Couplings  ----
                      3XX-RR        3YY-RR        3ZZ-RR
 --------------------------------------------------------
     1   Atom        3.493923     -1.741338     -1.752584
     2   Atom       -0.040008     -0.138414      0.178422
 --------------------------------------------------------
                        XY            XZ            YZ
 --------------------------------------------------------
     1   Atom        0.000000      0.000000      0.000000
     2   Atom        0.000000      0.000000      0.000000
 --------------------------------------------------------


 ---------------------------------------------------------------------------------
              Anisotropic Spin Dipole Couplings in Principal Axis System
 ---------------------------------------------------------------------------------

       Atom             a.u.   MegaHertz   Gauss  10(-4) cm-1        Axes

              Baa    -1.7526   126.816    45.251    42.301  0.0000  0.0000  1.0000
     1 O(17)  Bbb    -1.7413   126.002    44.961    42.030  0.0000  1.0000  0.0000
              Bcc     3.4939  -252.818   -90.212   -84.331  1.0000  0.0000  0.0000
 
              Baa    -0.1384   -73.851   -26.352   -24.634  0.0000  1.0000  0.0000
     2 H(1)   Bbb    -0.0400   -21.346    -7.617    -7.120  1.0000  0.0000  0.0000
              Bcc     0.1784    95.197    33.969    31.754  0.0000  0.0000  1.0000
 

 ---------------------------------------------------------------------------------

 Calling FoFJK, ICntrl=      2127 FMM=F ISym2X=1 I1Cent= 0 IOpClX= 1 NMat=1 NMatS=1 NMatT=0.
 ***** Axes restored to original set *****
 -------------------------------------------------------------------
 Center     Atomic                   Forces (Hartrees/Bohr)
 Number     Number              X              Y              Z
 -------------------------------------------------------------------
      1        8           0.005313880   -0.015005935    0.000000000
      2        1          -0.005313880    0.015005935    0.000000000
 -------------------------------------------------------------------
 Cartesian Forces:  Max     0.015005935 RMS     0.009190854

 GradGradGradGradGradGradGradGradGradGradGradGradGradGradGradGradGradGrad
 Berny optimization.
 Internal  Forces:  Max     0.015919026 RMS     0.015919026
 Search for a local minimum.
 Step number   1 out of a maximum of   20
 All quantities printed in internal units (Hartrees-Bohrs-Radians)
 Mixed Optimization -- RFO/linear search
 Second derivative matrix not updated -- first step.
 The second derivative matrix:
                          R1
           R1           0.55473
     Eigenvalues ---    0.55473
 RFO step:  Lambda=-4.56447655D-04 EMin= 5.54734043D-01
 Linear search not attempted -- first point.
 Iteration  1 RMS(Cart)=  0.02027494 RMS(Int)=  0.00000000
 Iteration  2 RMS(Cart)=  0.00000000 RMS(Int)=  0.00000000
 ClnCor:  largest displacement from symmetrization is 9.04D-16 for atom     1.
 Variable       Old X    -DE/DX   Delta X   Delta X   Delta X     New X
                                 (Linear)    (Quad)   (Total)
    R1        1.81414   0.01592   0.00000   0.02867   0.02867   1.84281
         Item               Value     Threshold  Converged?
 Maximum Force            0.015919     0.000450     NO 
 RMS     Force            0.015919     0.000300     NO 
 Maximum Displacement     0.013514     0.001800     NO 
 RMS     Displacement     0.020275     0.001200     NO 
 Predicted change in Energy=-2.284115D-04
 GradGradGradGradGradGradGradGradGradGradGradGradGradGradGradGradGradGrad

                          Input orientation:                          
 ---------------------------------------------------------------------
 Center     Atomic      Atomic             Coordinates (Angstroms)
 Number     Number       Type             X           Y           Z
 ---------------------------------------------------------------------
      1          8           0       -2.826860   -0.193433    0.000000
      2          1           0       -3.152380    0.725806    0.000000
 ---------------------------------------------------------------------
 Stoichiometry    HO(2)
 Framework group  C*V[C*(HO)]
 Deg. of freedom     1
 Full point group                 C*V     NOp   4
 Largest Abelian subgroup         C2V     NOp   4
 Largest concise Abelian subgroup C1      NOp   1
                         Standard orientation:                         
 ---------------------------------------------------------------------
 Center     Atomic      Atomic             Coordinates (Angstroms)
 Number     Number       Type             X           Y           Z
 ---------------------------------------------------------------------
      1          8           0        0.000000    0.000000    0.108353
      2          1           0        0.000000    0.000000   -0.866821
 ---------------------------------------------------------------------
 Rotational constants (GHZ):      0.0000000    560.5386568    560.5386568
 Standard basis: 6-31+G(d,p) (6D, 7F)
 There are    13 symmetry adapted basis functions of A1  symmetry.
 There are     1 symmetry adapted basis functions of A2  symmetry.
 There are     5 symmetry adapted basis functions of B1  symmetry.
 There are     5 symmetry adapted basis functions of B2  symmetry.
 Integral buffers will be    262144 words long.
 Raffenetti 2 integral format.
 Two-electron integral symmetry is turned on.
    24 basis functions,    39 primitive gaussians,    24 cartesian basis functions
     5 alpha electrons        4 beta electrons
       nuclear repulsion energy         4.3411959228 Hartrees.
 NAtoms=    2 NActive=    2 NUniq=    2 SFac= 7.50D-01 NAtFMM=   80 NAOKFM=F Big=F
 One-electron integrals computed using PRISM.
 NBasis=    24 RedAO= T  NBF=    13     1     5     5
 NBsUse=    24 1.00D-06 NBFU=    13     1     5     5
 Initial guess read from the read-write file.
 B after Tr=     0.000000    0.000000    0.000000
         Rot=    1.000000    0.000000    0.000000    0.000000 Ang=   0.00 deg.
 Initial guess orbital symmetries:
 Alpha Orbitals:
       Occupied  (SG) (SG) (SG) (PI) (PI)
       Virtual   (SG) (SG) (PI) (PI) (SG) (SG) (PI) (PI) (SG) (SG)
                 (PI) (PI) (DLTA) (DLTA) (SG) (PI) (PI) (SG) (SG)
 Beta  Orbitals:
       Occupied  (SG) (SG) (SG) (?A)
       Virtual   (?A) (SG) (SG) (?A) (?A) (SG) (SG) (SG) (PI) (PI)
                 (SG) (PI) (PI) (DLTA) (DLTA) (SG) (PI) (PI) (SG)
                 (SG)
 Initial guess <Sx>= 0.0000 <Sy>= 0.0000 <Sz>= 0.5000 <S**2>= 0.7528 S= 0.5014
 Requested convergence on RMS density matrix=1.00D-08 within 128 cycles.
 Requested convergence on MAX density matrix=1.00D-06.
 Requested convergence on             energy=1.00D-06.
 No special actions if energy rises.
 Keep R1 and R2 ints in memory in canonical form, NReq=982356.
 SCF Done:  E(UM062X) =  -75.7017284597     A.U. after    9 cycles
             Convg  =    0.1456D-08             -V/T =  2.0081
 <Sx>= 0.0000 <Sy>= 0.0000 <Sz>= 0.5000 <S**2>= 0.7528 S= 0.5014
 <L.S>= 0.000000000000E+00
 Annihilation of the first spin contaminant:
 S**2 before annihilation     0.7528,   after     0.7500
 Calling FoFJK, ICntrl=      2127 FMM=F ISym2X=1 I1Cent= 0 IOpClX= 1 NMat=1 NMatS=1 NMatT=0.
 ***** Axes restored to original set *****
 -------------------------------------------------------------------
 Center     Atomic                   Forces (Hartrees/Bohr)
 Number     Number              X              Y              Z
 -------------------------------------------------------------------
      1        8           0.000178998   -0.000505476    0.000000000
      2        1          -0.000178998    0.000505476    0.000000000
 -------------------------------------------------------------------
 Cartesian Forces:  Max     0.000505476 RMS     0.000309595

 GradGradGradGradGradGradGradGradGradGradGradGradGradGradGradGradGradGrad
 Berny optimization.
 Using GEDIIS/GDIIS optimizer.
 Internal  Forces:  Max     0.000536234 RMS     0.000536234
 Search for a local minimum.
 Step number   2 out of a maximum of   20
 All quantities printed in internal units (Hartrees-Bohrs-Radians)
 Mixed Optimization -- En-DIIS/RFO-DIIS
 Update second derivatives using D2CorX and points    1    2
 DE= -2.32D-04 DEPred=-2.28D-04 R= 1.02D+00
 SS=  1.41D+00  RLast= 2.87D-02 DXNew= 5.0454D-01 8.6019D-02
 Trust test= 1.02D+00 RLast= 2.87D-02 DXMaxT set to 3.00D-01
 The second derivative matrix:
                          R1
           R1           0.53649
 Use linear search instead of GDIIS.
     Eigenvalues ---    0.53649
 RFO step:  Lambda= 0.00000000D+00 EMin= 5.36488857D-01
 Quartic linear search produced a step of  0.03693.
 Iteration  1 RMS(Cart)=  0.00074871 RMS(Int)=  0.00000000
 Iteration  2 RMS(Cart)=  0.00000000 RMS(Int)=  0.00000000
 ClnCor:  largest displacement from symmetrization is 8.89D-16 for atom     2.
 Variable       Old X    -DE/DX   Delta X   Delta X   Delta X     New X
                                 (Linear)    (Quad)   (Total)
    R1        1.84281   0.00054   0.00106   0.00000   0.00106   1.84387
         Item               Value     Threshold  Converged?
 Maximum Force            0.000536     0.000450     NO 
 RMS     Force            0.000536     0.000300     NO 
 Maximum Displacement     0.000499     0.001800     YES
 RMS     Displacement     0.000749     0.001200     YES
 Predicted change in Energy=-2.670456D-07
 GradGradGradGradGradGradGradGradGradGradGradGradGradGradGradGradGradGrad

                          Input orientation:                          
 ---------------------------------------------------------------------
 Center     Atomic      Atomic             Coordinates (Angstroms)
 Number     Number       Type             X           Y           Z
 ---------------------------------------------------------------------
      1          8           0       -2.826767   -0.193697    0.000000
      2          1           0       -3.152473    0.726070    0.000000
 ---------------------------------------------------------------------
 Stoichiometry    HO(2)
 Framework group  C*V[C*(HO)]
 Deg. of freedom     1
 Full point group                 C*V     NOp   4
 Largest Abelian subgroup         C2V     NOp   4
 Largest concise Abelian subgroup C1      NOp   1
                         Standard orientation:                         
 ---------------------------------------------------------------------
 Center     Atomic      Atomic             Coordinates (Angstroms)
 Number     Number       Type             X           Y           Z
 ---------------------------------------------------------------------
      1          8           0        0.000000    0.000000    0.108415
      2          1           0        0.000000    0.000000   -0.867319
 ---------------------------------------------------------------------
 Rotational constants (GHZ):      0.0000000    559.8950663    559.8950663
 Standard basis: 6-31+G(d,p) (6D, 7F)
 There are    13 symmetry adapted basis functions of A1  symmetry.
 There are     1 symmetry adapted basis functions of A2  symmetry.
 There are     5 symmetry adapted basis functions of B1  symmetry.
 There are     5 symmetry adapted basis functions of B2  symmetry.
 Integral buffers will be    262144 words long.
 Raffenetti 2 integral format.
 Two-electron integral symmetry is turned on.
    24 basis functions,    39 primitive gaussians,    24 cartesian basis functions
     5 alpha electrons        4 beta electrons
       nuclear repulsion energy         4.3387030041 Hartrees.
 NAtoms=    2 NActive=    2 NUniq=    2 SFac= 7.50D-01 NAtFMM=   80 NAOKFM=F Big=F
 One-electron integrals computed using PRISM.
 NBasis=    24 RedAO= T  NBF=    13     1     5     5
 NBsUse=    24 1.00D-06 NBFU=    13     1     5     5
 Initial guess read from the read-write file.
 B after Tr=     0.000000    0.000000    0.000000
         Rot=    1.000000    0.000000    0.000000    0.000000 Ang=   0.00 deg.
 Initial guess orbital symmetries:
 Alpha Orbitals:
       Occupied  (SG) (SG) (SG) (PI) (PI)
       Virtual   (SG) (PI) (SG) (PI) (SG) (SG) (PI) (PI) (SG) (SG)
                 (PI) (PI) (DLTA) (DLTA) (SG) (PI) (PI) (SG) (SG)
 Beta  Orbitals:
       Occupied  (SG) (SG) (SG) (?A)
       Virtual   (?A) (SG) (SG) (?A) (?A) (SG) (SG) (PI) (SG) (PI)
                 (SG) (PI) (PI) (DLTA) (DLTA) (SG) (PI) (PI) (SG)
                 (SG)
 Initial guess <Sx>= 0.0000 <Sy>= 0.0000 <Sz>= 0.5000 <S**2>= 0.7528 S= 0.5014
 Requested convergence on RMS density matrix=1.00D-08 within 128 cycles.
 Requested convergence on MAX density matrix=1.00D-06.
 Requested convergence on             energy=1.00D-06.
 No special actions if energy rises.
 Keep R1 and R2 ints in memory in canonical form, NReq=982356.
 SCF Done:  E(UM062X) =  -75.7017287428     A.U. after    7 cycles
             Convg  =    0.6326D-08             -V/T =  2.0081
 <Sx>= 0.0000 <Sy>= 0.0000 <Sz>= 0.5000 <S**2>= 0.7528 S= 0.5014
 <L.S>= 0.000000000000E+00
 Annihilation of the first spin contaminant:
 S**2 before annihilation     0.7528,   after     0.7500
 Calling FoFJK, ICntrl=      2127 FMM=F ISym2X=1 I1Cent= 0 IOpClX= 1 NMat=1 NMatS=1 NMatT=0.
 ***** Axes restored to original set *****
 -------------------------------------------------------------------
 Center     Atomic                   Forces (Hartrees/Bohr)
 Number     Number              X              Y              Z
 -------------------------------------------------------------------
      1        8          -0.000000371    0.000001047    0.000000000
      2        1           0.000000371   -0.000001047    0.000000000
 -------------------------------------------------------------------
 Cartesian Forces:  Max     0.000001047 RMS     0.000000641

 GradGradGradGradGradGradGradGradGradGradGradGradGradGradGradGradGradGrad
 Berny optimization.
 Using GEDIIS/GDIIS optimizer.
 Internal  Forces:  Max     0.000001111 RMS     0.000001111
 Search for a local minimum.
 Step number   3 out of a maximum of   20
 All quantities printed in internal units (Hartrees-Bohrs-Radians)
 Mixed Optimization -- En-DIIS/RFO-DIIS
 Swaping is turned off.
 Update second derivatives using D2CorX and points    3
 DE= -2.83D-07 DEPred=-2.67D-07 R= 1.06D+00
 Trust test= 1.06D+00 RLast= 1.06D-03 DXMaxT set to 3.00D-01
 The second derivative matrix:
                          R1
           R1           0.53649
     Eigenvalues ---    0.53649
 En-DIIS/RFO-DIIS IScMMF=        0 using points:     3    2
 RFO step:  Lambda=-1.68431935D-12.
 DIIS coeffs:      0.99793      0.00207
 Iteration  1 RMS(Cart)=  0.00000155 RMS(Int)=  0.00000000
 Iteration  2 RMS(Cart)=  0.00000000 RMS(Int)=  0.00000000
 ClnCor:  largest displacement from symmetrization is 2.22D-16 for atom     2.
 Variable       Old X    -DE/DX   Delta X   Delta X   Delta X     New X
                                  (DIIS)     (GDIIS)  (Total)
    R1        1.84387   0.00000   0.00000   0.00000   0.00000   1.84387
         Item               Value     Threshold  Converged?
 Maximum Force            0.000001     0.000450     YES
 RMS     Force            0.000001     0.000300     YES
 Maximum Displacement     0.000001     0.001800     YES
 RMS     Displacement     0.000002     0.001200     YES
 Predicted change in Energy=-1.146009D-12
 Optimization completed.
    -- Stationary point found.
                           ----------------------------
                           !   Optimized Parameters   !
                           ! (Angstroms and Degrees)  !
 --------------------------                            --------------------------
 ! Name  Definition              Value          Derivative Info.                !
 --------------------------------------------------------------------------------
 ! R1    R(1,2)                  0.9757         -DE/DX =    0.0                 !
 --------------------------------------------------------------------------------
 GradGradGradGradGradGradGradGradGradGradGradGradGradGradGradGradGradGrad

                          Input orientation:                          
 ---------------------------------------------------------------------
 Center     Atomic      Atomic             Coordinates (Angstroms)
 Number     Number       Type             X           Y           Z
 ---------------------------------------------------------------------
      1          8           0       -2.826767   -0.193697    0.000000
      2          1           0       -3.152473    0.726070    0.000000
 ---------------------------------------------------------------------
 Stoichiometry    HO(2)
 Framework group  C*V[C*(HO)]
 Deg. of freedom     1
 Full point group                 C*V     NOp   4
 Largest Abelian subgroup         C2V     NOp   4
 Largest concise Abelian subgroup C1      NOp   1
                         Standard orientation:                         
 ---------------------------------------------------------------------
 Center     Atomic      Atomic             Coordinates (Angstroms)
 Number     Number       Type             X           Y           Z
 ---------------------------------------------------------------------
      1          8           0        0.000000    0.000000    0.108415
      2          1           0        0.000000    0.000000   -0.867319
 ---------------------------------------------------------------------
 Rotational constants (GHZ):      0.0000000    559.8950663    559.8950663

 **********************************************************************

            Population analysis using the SCF density.

 **********************************************************************

 Orbital symmetries:
 Alpha Orbitals:
       Occupied  (SG) (SG) (SG) (PI) (PI)
       Virtual   (SG) (PI) (SG) (PI) (SG) (SG) (PI) (PI) (SG) (SG)
                 (PI) (PI) (DLTA) (DLTA) (SG) (PI) (PI) (SG) (SG)
 Beta  Orbitals:
       Occupied  (SG) (SG) (SG) (?A)
       Virtual   (?A) (SG) (SG) (?A) (?A) (SG) (SG) (PI) (SG) (PI)
                 (SG) (PI) (PI) (DLTA) (DLTA) (SG) (PI) (PI) (SG)
                 (SG)
 Unable to determine electronic state:  an orbital has unidentified symmetry.
 Alpha  occ. eigenvalues --  -19.72284  -1.14653  -0.56491  -0.50306  -0.43866
 Alpha virt. eigenvalues --    0.07935   0.17124   0.17127   0.17713   0.24957
 Alpha virt. eigenvalues --    0.97544   1.12075   1.16882   1.17925   1.23764
 Alpha virt. eigenvalues --    1.56648   1.59363   1.79994   1.80137   2.39450
 Alpha virt. eigenvalues --    2.61915   2.63911   3.34906   3.78713
  Beta  occ. eigenvalues --  -19.70605  -1.06466  -0.53252  -0.40234
  Beta virt. eigenvalues --   -0.10684   0.07570   0.17076   0.18188   0.18296
  Beta virt. eigenvalues --    0.25063   0.99360   1.18355   1.18840   1.19861
  Beta virt. eigenvalues --    1.24463   1.60781   1.60808   1.85039   1.86741
  Beta virt. eigenvalues --    2.41866   2.63559   2.64364   3.36220   3.82369
          Condensed to atoms (all electrons):
              1          2
     1  O    8.126722   0.229083
     2  H    0.229083   0.415112
 Mulliken atomic charges:
              1
     1  O   -0.355805
     2  H    0.355805
 Sum of Mulliken atomic charges =   0.00000
 Mulliken charges with hydrogens summed into heavy atoms:
              1
     1  O    0.000000
 Sum of Mulliken charges with hydrogens summed into heavy atoms =   0.00000
          Atomic-Atomic Spin Densities.
              1          2
     1  O    1.026838   0.002229
     2  H    0.002229  -0.031295
 Mulliken atomic spin densities:
              1
     1  O    1.029066
     2  H   -0.029066
 Sum of Mulliken atomic spin densities =   1.00000
 Electronic spatial extent (au):  <R**2>=             15.7267
 Charge=              0.0000 electrons
 Dipole moment (field-independent basis, Debye):
    X=              0.0000    Y=              0.0000    Z=             -1.8887  Tot=              1.8887
 Quadrupole moment (field-independent basis, Debye-Ang):
   XX=             -5.5419   YY=             -6.8905   ZZ=             -4.6558
   XY=              0.0000   XZ=              0.0000   YZ=              0.0000
 Traceless Quadrupole moment (field-independent basis, Debye-Ang):
   XX=              0.1542   YY=             -1.1944   ZZ=              1.0403
   XY=              0.0000   XZ=              0.0000   YZ=              0.0000
 Octapole moment (field-independent basis, Debye-Ang**2):
  XXX=              0.0000  YYY=              0.0000  ZZZ=             -2.1867  XYY=              0.0000
  XXY=              0.0000  XXZ=             -0.2663  XZZ=              0.0000  YZZ=              0.0000
  YYZ=             -0.3899  XYZ=              0.0000
 Hexadecapole moment (field-independent basis, Debye-Ang**3):
 XXXX=             -4.0815 YYYY=             -6.3147 ZZZZ=             -5.6753 XXXY=              0.0000
 XXXZ=              0.0000 YYYX=              0.0000 YYYZ=              0.0000 ZZZX=              0.0000
 ZZZY=              0.0000 XXYY=             -1.7327 XXZZ=             -1.8587 YYZZ=             -2.2479
 XXYZ=              0.0000 YYXZ=              0.0000 ZZXY=              0.0000
 N-N= 4.338703004101D+00 E-N=-2.764561792394D+02  KE= 1.112553388236D+02
 Symmetry A1   KE= 1.018236890965D+02
 Symmetry A2   KE= 4.951680134110D-35
 Symmetry B1   KE= 2.479547955602D+00
 Symmetry B2   KE= 6.952101771556D+00
                          Isotropic Fermi Contact Couplings
        Atom                 a.u.       MegaHertz       Gauss      10(-4) cm-1
     1  O(17)              0.15460     -93.71684     -33.44050     -31.26057
     2  H(1)              -0.01542     -68.92262     -24.59330     -22.99011
 --------------------------------------------------------
       Center         ----  Spin Dipole Couplings  ----
                      3XX-RR        3YY-RR        3ZZ-RR
 --------------------------------------------------------
     1   Atom        3.492772     -1.743558     -1.749213
     2   Atom       -0.040757     -0.133301      0.174058
 --------------------------------------------------------
                        XY            XZ            YZ
 --------------------------------------------------------
     1   Atom        0.000000      0.000000      0.000000
     2   Atom        0.000000      0.000000      0.000000
 --------------------------------------------------------


 ---------------------------------------------------------------------------------
              Anisotropic Spin Dipole Couplings in Principal Axis System
 ---------------------------------------------------------------------------------

       Atom             a.u.   MegaHertz   Gauss  10(-4) cm-1        Axes

              Baa    -1.7492   126.572    45.164    42.220  0.0000  0.0000  1.0000
     1 O(17)  Bbb    -1.7436   126.163    45.018    42.083  0.0000  1.0000  0.0000
              Bcc     3.4928  -252.735   -90.182   -84.303  1.0000  0.0000  0.0000
 
              Baa    -0.1333   -71.123   -25.378   -23.724  0.0000  1.0000  0.0000
     2 H(1)   Bbb    -0.0408   -21.746    -7.760    -7.254  1.0000  0.0000  0.0000
              Bcc     0.1741    92.869    33.138    30.978  0.0000  0.0000  1.0000
 

 ---------------------------------------------------------------------------------

 1|1|UNPC-DESKTOP-319GPER|FOpt|UM062X|6-31+G(d,p)|H1O1(2)|SAGAD|17-Jan-
 2021|0||# opt freq=noraman 6-31+g(d,p) M062x||Hydroxyl radical M062X||
 0,2|O,-2.8267666121,-0.1936969148,0.|H,-3.1524731279,0.7260699248,0.||
 Version=IA32W-G09RevA.02|HF=-75.7017287|S2=0.752839|S2-1=0.|S2A=0.7500
 06|RMSD=6.326e-009|RMSF=6.413e-007|Dipole=-0.2480379,0.7004376,0.|Quad
 rupole=0.088751,0.6875634,-0.7763143,-0.2424543,-0.2973987,-0.1053144|
 PG=C*V [C*(H1O1)]||@


 THERE ONCE WAS A GIRL NAMED IRENE,
 WHO LIVED ON DISTILLED KEROSENE,
      BUT SHE STARTED ABSORBIN'
      A NEW HYDROCARBON,
 AND SINCE THEN HAS NEVER BENZENE.
 Job cpu time:  0 days  0 hours  0 minutes  3.0 seconds.
 File lengths (MBytes):  RWF=      5 Int=      0 D2E=      0 Chk=      1 Scr=      1
 Normal termination of Gaussian 09 at Sun Jan 17 13:05:13 2021.
 Link1:  Proceeding to internal job step number  2.
 ----------------------------------------------------------------------
 #N Geom=AllCheck Guess=TCheck SCRF=Check GenChk UM062X/6-31+G(d,p) Fre
 q
 ----------------------------------------------------------------------
 1/10=4,29=7,30=1,38=1,40=1/1,3;
 2/12=2,40=1/2;
 3/5=1,6=6,7=111,11=2,14=-4,16=1,25=1,30=1,70=2,71=2,74=-55,116=2/1,2,3;
 4/5=101/1;
 5/5=2,98=1/2;
 8/6=4,10=90,11=11/1;
 11/6=1,8=1,9=11,15=111,16=1/1,2,10;
 10/6=1/2;
 6/7=2,8=2,9=2,10=2,18=1,28=1/1;
 7/8=1,10=1,25=1/1,2,3,16;
 1/10=4,30=1/3;
 99//99;
 ----------------------
 Hydroxyl radical M062X
 ----------------------
 Redundant internal coordinates taken from checkpoint file:
 D:\Documents\rayGit\FQ\quimicaComputacional\p3Eteno\reactivos\hydroxylRadicalM062x.chk
 Charge =  0 Multiplicity = 2
 O,0,-2.8267666121,-0.1936969148,0.
 H,0,-3.1524731279,0.7260699248,0.
 Recover connectivity data from disk.

 GradGradGradGradGradGradGradGradGradGradGradGradGradGradGradGradGradGrad
 Berny optimization.
 Initialization pass.
                           ----------------------------
                           !    Initial Parameters    !
                           ! (Angstroms and Degrees)  !
 --------------------------                            --------------------------
 ! Name  Definition              Value          Derivative Info.                !
 --------------------------------------------------------------------------------
 ! R1    R(1,2)                  0.9757         calculate D2E/DX2 analytically  !
 --------------------------------------------------------------------------------
 Trust Radius=3.00D-01 FncErr=1.00D-07 GrdErr=1.00D-07
 Number of steps in this run=   2 maximum allowed number of steps=   2.
 GradGradGradGradGradGradGradGradGradGradGradGradGradGradGradGradGradGrad

                          Input orientation:                          
 ---------------------------------------------------------------------
 Center     Atomic      Atomic             Coordinates (Angstroms)
 Number     Number       Type             X           Y           Z
 ---------------------------------------------------------------------
      1          8           0       -2.826767   -0.193697    0.000000
      2          1           0       -3.152473    0.726070    0.000000
 ---------------------------------------------------------------------
 Stoichiometry    HO(2)
 Framework group  C*V[C*(HO)]
 Deg. of freedom     1
 Full point group                 C*V     NOp   4
 Largest Abelian subgroup         C2V     NOp   4
 Largest concise Abelian subgroup C1      NOp   1
                         Standard orientation:                         
 ---------------------------------------------------------------------
 Center     Atomic      Atomic             Coordinates (Angstroms)
 Number     Number       Type             X           Y           Z
 ---------------------------------------------------------------------
      1          8           0        0.000000    0.000000    0.108415
      2          1           0        0.000000    0.000000   -0.867319
 ---------------------------------------------------------------------
 Rotational constants (GHZ):      0.0000000    559.8950663    559.8950663
 Standard basis: 6-31+G(d,p) (6D, 7F)
 There are    13 symmetry adapted basis functions of A1  symmetry.
 There are     1 symmetry adapted basis functions of A2  symmetry.
 There are     5 symmetry adapted basis functions of B1  symmetry.
 There are     5 symmetry adapted basis functions of B2  symmetry.
 Integral buffers will be    262144 words long.
 Raffenetti 2 integral format.
 Two-electron integral symmetry is turned on.
    24 basis functions,    39 primitive gaussians,    24 cartesian basis functions
     5 alpha electrons        4 beta electrons
       nuclear repulsion energy         4.3387030041 Hartrees.
 NAtoms=    2 NActive=    2 NUniq=    2 SFac= 7.50D-01 NAtFMM=   80 NAOKFM=F Big=F
 One-electron integrals computed using PRISM.
 NBasis=    24 RedAO= T  NBF=    13     1     5     5
 NBsUse=    24 1.00D-06 NBFU=    13     1     5     5
 Initial guess read from the checkpoint file:  D:\Documents\rayGit\FQ\quimicaComp
 utacional\p3Eteno\reactivos\hydroxylRadicalM062x.chk
 B after Tr=     0.000000    0.000000    0.000000
         Rot=    1.000000    0.000000    0.000000    0.000000 Ang=   0.00 deg.
 Initial guess orbital symmetries:
 Alpha Orbitals:
       Occupied  (SG) (SG) (SG) (PI) (PI)
       Virtual   (SG) (PI) (SG) (PI) (SG) (SG) (PI) (PI) (SG) (SG)
                 (PI) (PI) (DLTA) (DLTA) (SG) (PI) (PI) (SG) (SG)
 Beta  Orbitals:
       Occupied  (SG) (SG) (SG) (?A)
       Virtual   (?A) (SG) (SG) (?A) (?A) (SG) (SG) (PI) (SG) (PI)
                 (SG) (PI) (PI) (DLTA) (DLTA) (SG) (PI) (PI) (SG)
                 (SG)
 Initial guess <Sx>= 0.0000 <Sy>= 0.0000 <Sz>= 0.5000 <S**2>= 0.7528 S= 0.5014
 Requested convergence on RMS density matrix=1.00D-08 within 128 cycles.
 Requested convergence on MAX density matrix=1.00D-06.
 Requested convergence on             energy=1.00D-06.
 No special actions if energy rises.
 Keep R1 and R2 ints in memory in canonical form, NReq=982356.
 SCF Done:  E(UM062X) =  -75.7017287428     A.U. after    1 cycles
             Convg  =    0.2926D-09             -V/T =  2.0081
 <Sx>= 0.0000 <Sy>= 0.0000 <Sz>= 0.5000 <S**2>= 0.7528 S= 0.5014
 <L.S>= 0.000000000000E+00
 Annihilation of the first spin contaminant:
 S**2 before annihilation     0.7528,   after     0.7500
 Range of M.O.s used for correlation:     1    24
 NBasis=    24 NAE=     5 NBE=     4 NFC=     0 NFV=     0
 NROrb=     24 NOA=     5 NOB=     4 NVA=    19 NVB=    20
 Symmetrizing basis deriv contribution to polar:
 IMax=3 JMax=2 DiffMx= 0.00D+00
 G2DrvN: will do     3 centers at a time, making    1 passes doing MaxLOS=2.
 Calling FoFCou, ICntrl=  3107 FMM=F I1Cent=   0 AccDes= 0.00D+00.
 FoFDir/FoFCou used for L=0 through L=2.
 End of G2Drv Frequency-dependent properties file   721 does not exist.
 End of G2Drv Frequency-dependent properties file   722 does not exist.
          IDoAtm=11
          Differentiating once with respect to electric field.
                with respect to dipole field.
          Differentiating once with respect to nuclear coordinates.
          Keep R1 and R2 ints in memory in canonical form, NReq=910920.
          There are     9 degrees of freedom in the 1st order CPHF.  IDoFFX=5.
      6 vectors produced by pass  0 Test12= 1.94D-15 1.11D-08 XBig12= 4.06D+00 9.97D-01.
 AX will form     6 AO Fock derivatives at one time.
      6 vectors produced by pass  1 Test12= 1.94D-15 1.11D-08 XBig12= 3.76D-01 2.21D-01.
      6 vectors produced by pass  2 Test12= 1.94D-15 1.11D-08 XBig12= 7.12D-03 3.21D-02.
      6 vectors produced by pass  3 Test12= 1.94D-15 1.11D-08 XBig12= 4.69D-05 2.79D-03.
      6 vectors produced by pass  4 Test12= 1.94D-15 1.11D-08 XBig12= 1.08D-06 4.03D-04.
      6 vectors produced by pass  5 Test12= 1.94D-15 1.11D-08 XBig12= 1.23D-08 3.47D-05.
      4 vectors produced by pass  6 Test12= 1.94D-15 1.11D-08 XBig12= 7.97D-11 3.24D-06.
      1 vectors produced by pass  7 Test12= 1.94D-15 1.11D-08 XBig12= 7.83D-13 3.42D-07.
      1 vectors produced by pass  8 Test12= 1.94D-15 1.11D-08 XBig12= 2.18D-15 1.50D-08.
 Inverted reduced A of dimension    42 with in-core refinement.
 Isotropic polarizability for W=    0.000000        4.93 Bohr**3.
 End of Minotr Frequency-dependent properties file   721 does not exist.
 End of Minotr Frequency-dependent properties file   722 does not exist.

 **********************************************************************

            Population analysis using the SCF density.

 **********************************************************************

 Orbital symmetries:
 Alpha Orbitals:
       Occupied  (SG) (SG) (SG) (PI) (PI)
       Virtual   (SG) (PI) (SG) (PI) (SG) (SG) (PI) (PI) (SG) (SG)
                 (PI) (PI) (DLTA) (DLTA) (SG) (PI) (PI) (SG) (SG)
 Beta  Orbitals:
       Occupied  (SG) (SG) (SG) (?A)
       Virtual   (?A) (SG) (SG) (?A) (?A) (SG) (SG) (PI) (SG) (PI)
                 (SG) (PI) (PI) (DLTA) (DLTA) (SG) (PI) (PI) (SG)
                 (SG)
 Unable to determine electronic state:  an orbital has unidentified symmetry.
 Alpha  occ. eigenvalues --  -19.72284  -1.14653  -0.56491  -0.50306  -0.43866
 Alpha virt. eigenvalues --    0.07935   0.17124   0.17127   0.17713   0.24957
 Alpha virt. eigenvalues --    0.97544   1.12075   1.16882   1.17925   1.23764
 Alpha virt. eigenvalues --    1.56648   1.59363   1.79994   1.80137   2.39450
 Alpha virt. eigenvalues --    2.61915   2.63911   3.34906   3.78713
  Beta  occ. eigenvalues --  -19.70605  -1.06466  -0.53252  -0.40234
  Beta virt. eigenvalues --   -0.10684   0.07570   0.17076   0.18188   0.18296
  Beta virt. eigenvalues --    0.25063   0.99360   1.18355   1.18840   1.19861
  Beta virt. eigenvalues --    1.24463   1.60781   1.60808   1.85039   1.86741
  Beta virt. eigenvalues --    2.41866   2.63559   2.64364   3.36220   3.82369
          Condensed to atoms (all electrons):
              1          2
     1  O    8.126722   0.229083
     2  H    0.229083   0.415112
 Mulliken atomic charges:
              1
     1  O   -0.355805
     2  H    0.355805
 Sum of Mulliken atomic charges =   0.00000
 Mulliken charges with hydrogens summed into heavy atoms:
              1
     1  O    0.000000
 Sum of Mulliken charges with hydrogens summed into heavy atoms =   0.00000
          Atomic-Atomic Spin Densities.
              1          2
     1  O    1.026838   0.002229
     2  H    0.002229  -0.031295
 Mulliken atomic spin densities:
              1
     1  O    1.029066
     2  H   -0.029066
 Sum of Mulliken atomic spin densities =   1.00000
 APT atomic charges:
              1
     1  O   -0.316028
     2  H    0.316028
 Sum of APT charges=   0.00000
 APT Atomic charges with hydrogens summed into heavy atoms:
              1
     1  O    0.000000
     2  H    0.000000
 Sum of APT charges=   0.00000
 Electronic spatial extent (au):  <R**2>=             15.7267
 Charge=              0.0000 electrons
 Dipole moment (field-independent basis, Debye):
    X=              0.0000    Y=              0.0000    Z=             -1.8887  Tot=              1.8887
 Quadrupole moment (field-independent basis, Debye-Ang):
   XX=             -5.5419   YY=             -6.8905   ZZ=             -4.6558
   XY=              0.0000   XZ=              0.0000   YZ=              0.0000
 Traceless Quadrupole moment (field-independent basis, Debye-Ang):
   XX=              0.1542   YY=             -1.1944   ZZ=              1.0403
   XY=              0.0000   XZ=              0.0000   YZ=              0.0000
 Octapole moment (field-independent basis, Debye-Ang**2):
  XXX=              0.0000  YYY=              0.0000  ZZZ=             -2.1867  XYY=              0.0000
  XXY=              0.0000  XXZ=             -0.2663  XZZ=              0.0000  YZZ=              0.0000
  YYZ=             -0.3899  XYZ=              0.0000
 Hexadecapole moment (field-independent basis, Debye-Ang**3):
 XXXX=             -4.0815 YYYY=             -6.3147 ZZZZ=             -5.6753 XXXY=              0.0000
 XXXZ=              0.0000 YYYX=              0.0000 YYYZ=              0.0000 ZZZX=              0.0000
 ZZZY=              0.0000 XXYY=             -1.7327 XXZZ=             -1.8587 YYZZ=             -2.2479
 XXYZ=              0.0000 YYXZ=              0.0000 ZZXY=              0.0000
 N-N= 4.338703004100D+00 E-N=-2.764561792680D+02  KE= 1.112553388425D+02
 Symmetry A1   KE= 1.018236891320D+02
 Symmetry A2   KE= 1.173925433950D-34
 Symmetry B1   KE= 2.479547950970D+00
 Symmetry B2   KE= 6.952101759552D+00
  Exact polarizability:   3.582   0.000   4.561   0.000   0.000   6.633
 Approx polarizability:   3.325   0.000   3.970   0.000   0.000   6.721
                          Isotropic Fermi Contact Couplings
        Atom                 a.u.       MegaHertz       Gauss      10(-4) cm-1
     1  O(17)              0.15460     -93.71684     -33.44050     -31.26057
     2  H(1)              -0.01542     -68.92263     -24.59331     -22.99012
 --------------------------------------------------------
       Center         ----  Spin Dipole Couplings  ----
                      3XX-RR        3YY-RR        3ZZ-RR
 --------------------------------------------------------
     1   Atom        3.492772     -1.743558     -1.749213
     2   Atom       -0.040757     -0.133301      0.174058
 --------------------------------------------------------
                        XY            XZ            YZ
 --------------------------------------------------------
     1   Atom        0.000000      0.000000      0.000000
     2   Atom        0.000000      0.000000      0.000000
 --------------------------------------------------------


 ---------------------------------------------------------------------------------
              Anisotropic Spin Dipole Couplings in Principal Axis System
 ---------------------------------------------------------------------------------

       Atom             a.u.   MegaHertz   Gauss  10(-4) cm-1        Axes

              Baa    -1.7492   126.572    45.164    42.220  0.0000  0.0000  1.0000
     1 O(17)  Bbb    -1.7436   126.163    45.018    42.083  0.0000  1.0000  0.0000
              Bcc     3.4928  -252.735   -90.182   -84.303  1.0000  0.0000  0.0000
 
              Baa    -0.1333   -71.123   -25.378   -23.724  0.0000  1.0000  0.0000
     2 H(1)   Bbb    -0.0408   -21.746    -7.760    -7.254  1.0000  0.0000  0.0000
              Bcc     0.1741    92.869    33.138    30.978  0.0000  0.0000  1.0000
 

 ---------------------------------------------------------------------------------

 Calling FoFJK, ICntrl=    100127 FMM=F ISym2X=1 I1Cent= 0 IOpClX= 1 NMat=1 NMatS=1 NMatT=0.
 Full mass-weighted force constant matrix:
 Low frequencies --- -175.1686    0.0015    0.0017    0.0022   62.3654 3757.4492
 Diagonal vibrational polarizability:
        0.0000000       0.0000000       0.0378619
 Harmonic frequencies (cm**-1), IR intensities (KM/Mole), Raman scattering
 activities (A**4/AMU), depolarization ratios for plane and unpolarized
 incident light, reduced masses (AMU), force constants (mDyne/A),
 and normal coordinates:
                     1
                    SG
 Frequencies --  3757.4492
 Red. masses --     1.0671
 Frc consts  --     8.8764
 IR Inten    --    19.8635
  Atom  AN      X      Y      Z
     1   8     0.00   0.00   0.06
     2   1     0.00   0.00  -1.00

 -------------------
 - Thermochemistry -
 -------------------
 Temperature   298.150 Kelvin.  Pressure   1.00000 Atm.
 Atom     1 has atomic number  8 and mass  15.99491
 Atom     2 has atomic number  1 and mass   1.00783
 Molecular mass:    17.00274 amu.
 Principal axes and moments of inertia in atomic units:
                           1         2         3
     Eigenvalues --     0.00000   3.22336   3.22336
           X            0.00000   0.08034   0.99677
           Y            0.00000   0.99677  -0.08034
           Z            1.00000   0.00000   0.00000
 This molecule is a prolate symmetric top.
 Rotational symmetry number  1.
 Rotational temperature (Kelvin)     26.87069
 Rotational constant (GHZ):         559.895066
 Zero-point vibrational energy      22474.5 (Joules/Mol)
                                    5.37154 (Kcal/Mol)
 Vibrational temperatures:   5406.12
          (Kelvin)
 
 Zero-point correction=                           0.008560 (Hartree/Particle)
 Thermal correction to Energy=                    0.010921
 Thermal correction to Enthalpy=                  0.011865
 Thermal correction to Gibbs Free Energy=        -0.008368
 Sum of electronic and zero-point Energies=            -75.693169
 Sum of electronic and thermal Energies=               -75.690808
 Sum of electronic and thermal Enthalpies=             -75.689864
 Sum of electronic and thermal Free Energies=          -75.710097
 
                     E (Thermal)             CV                S
                      KCal/Mol        Cal/Mol-Kelvin    Cal/Mol-Kelvin
 Total                    6.853              4.968             42.584
 Electronic               0.000              0.000              1.377
 Translational            0.889              2.981             34.437
 Rotational               0.592              1.987              6.770
 Vibrational              5.372              0.000              0.000
                       Q            Log10(Q)             Ln(Q)
 Total Bot       0.706408D+04          3.849056          8.862778
 Total V=0       0.611532D+08          7.786420         17.928894
 Vib (Bot)       0.115514D-03         -3.937364         -9.066115
 Vib (V=0)       0.100000D+01          0.000000          0.000000
 Electronic      0.200000D+01          0.301030          0.693147
 Translational   0.275571D+07          6.440234         14.829186
 Rotational      0.110957D+02          1.045156          2.406560
 ***** Axes restored to original set *****
 -------------------------------------------------------------------
 Center     Atomic                   Forces (Hartrees/Bohr)
 Number     Number              X              Y              Z
 -------------------------------------------------------------------
      1        8          -0.000000370    0.000001046    0.000000000
      2        1           0.000000370   -0.000001046    0.000000000
 -------------------------------------------------------------------
 Cartesian Forces:  Max     0.000001046 RMS     0.000000641

 GradGradGradGradGradGradGradGradGradGradGradGradGradGradGradGradGradGrad
 Berny optimization.
 Internal  Forces:  Max     0.000001110 RMS     0.000001110
 Search for a local minimum.
 Step number   1 out of a maximum of    2
 All quantities printed in internal units (Hartrees-Bohrs-Radians)
 Second derivative matrix not updated -- analytic derivatives used.
 The second derivative matrix:
                          R1
           R1           0.50655
     Eigenvalues ---    0.50655
 Angle between quadratic step and forces=   0.00 degrees.
 Linear search not attempted -- first point.
 Iteration  1 RMS(Cart)=  0.00000155 RMS(Int)=  0.00000000
 Iteration  2 RMS(Cart)=  0.00000000 RMS(Int)=  0.00000000
 ClnCor:  largest displacement from symmetrization is 4.44D-16 for atom     2.
 Variable       Old X    -DE/DX   Delta X   Delta X   Delta X     New X
                                 (Linear)    (Quad)   (Total)
    R1        1.84387   0.00000   0.00000   0.00000   0.00000   1.84387
         Item               Value     Threshold  Converged?
 Maximum Force            0.000001     0.000450     YES
 RMS     Force            0.000001     0.000300     YES
 Maximum Displacement     0.000001     0.001800     YES
 RMS     Displacement     0.000002     0.001200     YES
 Predicted change in Energy=-1.215102D-12
 Optimization completed.
    -- Stationary point found.
                           ----------------------------
                           !   Optimized Parameters   !
                           ! (Angstroms and Degrees)  !
 --------------------------                            --------------------------
 ! Name  Definition              Value          Derivative Info.                !
 --------------------------------------------------------------------------------
 ! R1    R(1,2)                  0.9757         -DE/DX =    0.0                 !
 --------------------------------------------------------------------------------
 GradGradGradGradGradGradGradGradGradGradGradGradGradGradGradGradGradGrad

 1|1|UNPC-DESKTOP-319GPER|Freq|UM062X|6-31+G(d,p)|H1O1(2)|SAGAD|17-Jan-
 2021|0||#N Geom=AllCheck Guess=TCheck SCRF=Check GenChk UM062X/6-31+G(
 d,p) Freq||Hydroxyl radical M062X||0,2|O,-2.8267666121,-0.1936969148,0
 .|H,-3.1524731279,0.7260699248,0.||Version=IA32W-G09RevA.02|HF=-75.701
 7287|S2=0.752839|S2-1=0.|S2A=0.750006|RMSD=2.926e-010|RMSF=6.406e-007|
 ZeroPoint=0.0085601|Thermal=0.0109206|Dipole=-0.2480379,0.7004376,0.|D
 ipoleDeriv=-0.3756889,-0.0838203,0.0006288,-0.0838203,-0.1686699,0.000
 2227,0.0006288,0.0002227,-0.4037238,0.3756889,0.0838203,-0.0006288,0.0
 838203,0.1686699,-0.0002227,-0.0006288,-0.0002227,0.4037238|Polar=4.01
 87209,-0.9256228,6.3048188,0.2903833,0.1028301,4.4517675|PG=C*V [C*(H1
 O1)]|NImag=0||0.05558839,-0.15969534,0.45000304,0.00036793,0.00013029,
 0.00000133,-0.05558839,0.15969534,-0.00036793,0.05558839,0.15969534,-0
 .45000304,-0.00013029,-0.15969534,0.45000304,-0.00036793,-0.00013029,-
 0.00000133,0.00036793,0.00013029,0.00000133||0.00000037,-0.00000105,0.
 ,-0.00000037,0.00000105,0.|||@


 THERE ONCE WAS A GIRL NAMED IRENE,
 WHO LIVED ON DISTILLED KEROSENE,
      BUT SHE STARTED ABSORBIN'
      A NEW HYDROCARBON,
 AND SINCE THEN HAS NEVER BENZENE.
 Job cpu time:  0 days  0 hours  0 minutes  2.0 seconds.
 File lengths (MBytes):  RWF=      5 Int=      0 D2E=      0 Chk=      1 Scr=      1
 Normal termination of Gaussian 09 at Sun Jan 17 13:05:15 2021.
