 Entering Link 1 = C:\G09W\l1.exe PID=      1964.
  
 Copyright (c) 1988,1990,1992,1993,1995,1998,2003,2009, Gaussian, Inc.
                  All Rights Reserved.
  
 This is part of the Gaussian(R) 09 program.  It is based on
 the Gaussian(R) 03 system (copyright 2003, Gaussian, Inc.),
 the Gaussian(R) 98 system (copyright 1998, Gaussian, Inc.),
 the Gaussian(R) 94 system (copyright 1995, Gaussian, Inc.),
 the Gaussian 92(TM) system (copyright 1992, Gaussian, Inc.),
 the Gaussian 90(TM) system (copyright 1990, Gaussian, Inc.),
 the Gaussian 88(TM) system (copyright 1988, Gaussian, Inc.),
 the Gaussian 86(TM) system (copyright 1986, Carnegie Mellon
 University), and the Gaussian 82(TM) system (copyright 1983,
 Carnegie Mellon University). Gaussian is a federally registered
 trademark of Gaussian, Inc.
  
 This software contains proprietary and confidential information,
 including trade secrets, belonging to Gaussian, Inc.
  
 This software is provided under written license and may be
 used, copied, transmitted, or stored only in accord with that
 written license.
  
 The following legend is applicable only to US Government
 contracts under FAR:
  
                    RESTRICTED RIGHTS LEGEND
  
 Use, reproduction and disclosure by the US Government is
 subject to restrictions as set forth in subparagraphs (a)
 and (c) of the Commercial Computer Software - Restricted
 Rights clause in FAR 52.227-19.
  
 Gaussian, Inc.
 340 Quinnipiac St., Bldg. 40, Wallingford CT 06492
  
  
 ---------------------------------------------------------------
 Warning -- This program may not be used in any manner that
 competes with the business of Gaussian, Inc. or will provide
 assistance to any competitor of Gaussian, Inc.  The licensee
 of this program is prohibited from giving any competitor of
 Gaussian, Inc. access to this program.  By using this program,
 the user acknowledges that Gaussian, Inc. is engaged in the
 business of creating and licensing software in the field of
 computational chemistry and represents and warrants to the
 licensee that it is not a competitor of Gaussian, Inc. and that
 it will not use this program in any manner prohibited above.
 ---------------------------------------------------------------
  

 Cite this work as:
 Gaussian 09, Revision A.02,
 M. J. Frisch, G. W. Trucks, H. B. Schlegel, G. E. Scuseria, 
 M. A. Robb, J. R. Cheeseman, G. Scalmani, V. Barone, B. Mennucci, 
 G. A. Petersson, H. Nakatsuji, M. Caricato, X. Li, H. P. Hratchian, 
 A. F. Izmaylov, J. Bloino, G. Zheng, J. L. Sonnenberg, M. Hada, 
 M. Ehara, K. Toyota, R. Fukuda, J. Hasegawa, M. Ishida, T. Nakajima, 
 Y. Honda, O. Kitao, H. Nakai, T. Vreven, J. A. Montgomery, Jr., 
 J. E. Peralta, F. Ogliaro, M. Bearpark, J. J. Heyd, E. Brothers, 
 K. N. Kudin, V. N. Staroverov, R. Kobayashi, J. Normand, 
 K. Raghavachari, A. Rendell, J. C. Burant, S. S. Iyengar, J. Tomasi, 
 M. Cossi, N. Rega, J. M. Millam, M. Klene, J. E. Knox, J. B. Cross, 
 V. Bakken, C. Adamo, J. Jaramillo, R. Gomperts, R. E. Stratmann, 
 O. Yazyev, A. J. Austin, R. Cammi, C. Pomelli, J. W. Ochterski, 
 R. L. Martin, K. Morokuma, V. G. Zakrzewski, G. A. Voth, 
 P. Salvador, J. J. Dannenberg, S. Dapprich, A. D. Daniels, 
 O. Farkas, J. B. Foresman, J. V. Ortiz, J. Cioslowski, 
 and D. J. Fox, Gaussian, Inc., Wallingford CT, 2009.
 
 ******************************************
 Gaussian 09:  IA32W-G09RevA.02 11-Jun-2009
                24-Jan-2021 
 ******************************************
 %chk=D:\Documents\rayGit\FQ\quimicaComputacional\proyecto\chloauricAcidPka\chloa
 uricAcid.chk
 %mem=1500MB
 %nprocshared=4
 Will use up to    4 processors via shared memory.
 --------------------------------------------------------
 # opt freq geom=check guess=check lanl2dz scrf=smd m062x
 --------------------------------------------------------
 1/14=-1,18=20,19=15,26=3,29=2,38=1/1,3;
 2/9=110,12=2,40=1/2;
 3/5=6,6=3,11=2,14=-4,16=1,25=1,30=1,70=32201,71=1,72=1,74=-55,116=-2/1,2,3;
 4/5=1/1;
 5/5=2,38=6/2;
 6/7=2,8=2,9=2,10=2,28=1/1;
 7//1,2,3,16;
 1/14=-1,18=20,19=15/3(2);
 2/9=110/2;
 99//99;
 2/9=110/2;
 3/5=6,6=3,11=2,14=-2,16=1,25=1,30=1,70=32205,71=1,74=-55/1,2,3;
 4/5=5,16=3/1;
 5/5=2,38=5/2;
 7//1,2,3,16;
 1/14=-1,18=20,19=15/3(-5);
 2/9=110/2;
 6/7=2,8=2,9=2,10=2,19=2,28=1/1;
 99/9=1/99;
 ----------------
 chloroauric acid
 ----------------
 Redundant internal coordinates taken from checkpoint file:
 D:\Documents\rayGit\FQ\quimicaComputacional\proyecto\chloauricAcidPka\chloauricAcid.chk
 Charge =  0 Multiplicity = 1
 Au,0,0.2702808149,1.8735014254,-1.0270270614
 Cl,0,0.0126679025,1.9656926318,-3.5344678738
 Cl,0,-1.2292627996,-1.6185766596,1.033989819
 Cl,0,0.0288735259,0.7683578816,1.4201333267
 Cl,0,-2.7355746548,-0.5426244959,2.184834725
 H,0,-0.3187536908,0.8393594476,-1.9005921653
 Recover connectivity data from disk.

 GradGradGradGradGradGradGradGradGradGradGradGradGradGradGradGradGradGrad
 Berny optimization.
 Initialization pass.
                           ----------------------------
                           !    Initial Parameters    !
                           ! (Angstroms and Degrees)  !
 --------------------------                            --------------------------
 ! Name  Definition              Value          Derivative Info.                !
 --------------------------------------------------------------------------------
 ! R1    R(1,2)                  2.5223         estimate D2E/DX2                !
 ! R2    R(1,3)                  4.3233         estimate D2E/DX2                !
 ! R3    R(1,4)                  2.696          estimate D2E/DX2                !
 ! R4    R(1,5)                  5.0189         estimate D2E/DX2                !
 ! R5    R(1,6)                  1.4763         estimate D2E/DX2                !
 ! A1    A(2,1,3)              117.905          estimate D2E/DX2                !
 ! A2    A(2,1,4)              155.257          estimate D2E/DX2                !
 ! A3    A(2,1,5)              126.3424         estimate D2E/DX2                !
 ! A4    A(2,1,6)               52.8882         estimate D2E/DX2                !
 ! A5    A(3,1,4)               37.3547         estimate D2E/DX2                !
 ! A6    A(3,1,5)               25.6221         estimate D2E/DX2                !
 ! A7    A(3,1,6)               65.0322         estimate D2E/DX2                !
 ! A8    A(4,1,5)               33.7086         estimate D2E/DX2                !
 ! A9    A(5,1,6)               78.6089         estimate D2E/DX2                !
 ! D1    D(2,1,4,3)             -1.0315         estimate D2E/DX2                !
 ! D2    D(2,1,5,3)             79.0223         estimate D2E/DX2                !
 ! D3    D(2,1,6,3)           -178.5312         estimate D2E/DX2                !
 ! D4    D(2,1,5,4)            158.2572         estimate D2E/DX2                !
 ! D5    D(2,1,6,5)           -155.5735         estimate D2E/DX2                !
 ! D6    D(3,1,5,4)             79.2349         estimate D2E/DX2                !
 ! D7    D(3,1,6,5)             22.9577         estimate D2E/DX2                !
 --------------------------------------------------------------------------------
 Trust Radius=3.00D-01 FncErr=1.00D-07 GrdErr=1.00D-06
 Number of steps in this run=  31 maximum allowed number of steps= 100.
 GradGradGradGradGradGradGradGradGradGradGradGradGradGradGradGradGradGrad

                          Input orientation:                          
 ---------------------------------------------------------------------
 Center     Atomic      Atomic             Coordinates (Angstroms)
 Number     Number       Type             X           Y           Z
 ---------------------------------------------------------------------
      1         79           0        0.270281    1.873501   -1.027027
      2         17           0        0.012668    1.965693   -3.534468
      3         17           0       -1.229263   -1.618577    1.033990
      4         17           0        0.028874    0.768358    1.420133
      5         17           0       -2.735575   -0.542624    2.184835
      6          1           0       -0.318754    0.839359   -1.900592
 ---------------------------------------------------------------------
                    Distance matrix (angstroms):
                    1          2          3          4          5
     1  Au   0.000000
     2  Cl   2.522325   0.000000
     3  Cl   4.323313   5.938029   0.000000
     4  Cl   2.695962   5.097249   2.725705   0.000000
     5  Cl   5.018853   6.823116   2.179700   3.153667   0.000000
     6  H    1.476322   2.011968   3.934749   3.339626   4.943846
                    6
     6  H    0.000000
 Stoichiometry    AuCl4H
 Framework group  C1[X(AuCl4H)]
 Deg. of freedom    12
 Full point group                 C1      NOp   1
 Largest Abelian subgroup         C1      NOp   1
 Largest concise Abelian subgroup C1      NOp   1
                         Standard orientation:                         
 ---------------------------------------------------------------------
 Center     Atomic      Atomic             Coordinates (Angstroms)
 Number     Number       Type             X           Y           Z
 ---------------------------------------------------------------------
      1         79           0        1.102031   -0.337491    0.035962
      2         17           0        2.915871    1.412985    0.125063
      3         17           0       -2.908927    0.952486   -0.933166
      4         17           0       -1.410892   -1.243090   -0.329173
      5         17           0       -3.773788    0.380894    0.984225
      6          1           0        0.961085    1.106106   -0.239154
 ---------------------------------------------------------------------
 Rotational constants (GHZ):      2.0001556      0.3447271      0.3197052
 Standard basis: LANL2DZ (5D, 7F)
 There are    56 symmetry adapted basis functions of A   symmetry.
 Integral buffers will be    262144 words long.
 Raffenetti 2 integral format.
 Two-electron integral symmetry is turned on.
    56 basis functions,    95 primitive gaussians,    58 cartesian basis functions
    24 alpha electrons       24 beta electrons
       nuclear repulsion energy       138.6479570957 Hartrees.
 NAtoms=    6 NActive=    6 NUniq=    6 SFac= 7.50D-01 NAtFMM=   80 NAOKFM=F Big=F
 ------------------------------------------------------------------------------
 Polarizable Continuum Model (PCM)
 =================================
 Model                : PCM.
 Atomic radii         : SMD-Coulomb.
 Polarization charges : Total charges.
 Charge compensation  : None.
 Solution method      : Matrix inversion.
 Cavity type          : VdW (van der Waals Surface) (Alpha=1.000).
 Cavity algorithm     : GePol (No added spheres)
                        Default sphere list used, NSphG=    6.
                        Lebedev-Laikov grids with approx.  5.0 points / Ang**2.
                        Smoothing algorithm: Karplus/York (Gamma=1.0000).
                        Polarization charges: spherical gaussians, with
                                              point-specific exponents (IZeta= 3).
                        Self-potential: point-specific (ISelfS= 7).
                        Self-field    : sphere-specific E.n sum rule (ISelfD= 2).
 1st derivatives      : Analytical E(r).r(x)/FMM algorithm (CHGder, D1EAlg=3).
                        Cavity 1st derivative terms included.
 Solvent              : Water, Eps=  78.355300 Eps(inf)=   1.777849
 ------------------------------------------------------------------------------
 Spheres list:
 ISph  on   Nord    Re0     Alpha      Xe            Ye            Ze
    1  Au      1    1.660   1.000      1.102031     -0.337491      0.035962
    2  Cl      2    2.380   1.000      2.915871      1.412985      0.125063
    3  Cl      3    2.380   1.000     -2.908927      0.952486     -0.933166
    4  Cl      4    2.380   1.000     -1.410892     -1.243090     -0.329173
    5  Cl      5    2.380   1.000     -3.773788      0.380894      0.984225
    6   H      6    1.200   1.000      0.961085      1.106106     -0.239154
 ------------------------------------------------------------------------------
 ------------------------------------------------------------------------------
 Atomic radii for non-electrostatic terms: SMD-CDS.
 ------------------------------------------------------------------------------
 Nuclear repulsion after PCM non-electrostatic terms =      138.6512251068 Hartrees.
 One-electron integrals computed using PRISM.
   1 Symmetry operations used in ECPInt.
 ECPInt:  NShTT=     351 NPrTT=    1012 LenC2=     352 LenP2D=     946.
 LDataN:  DoStor=T MaxTD1= 6 Len=  172
 NBasis=    56 RedAO= T  NBF=    56
 NBsUse=    56 1.00D-06 NBFU=    56
 Defaulting to unpruned grid for atomic number  79.
 Initial guess read from the checkpoint file:  D:\Documents\rayGit\FQ\quimicaComp
 utacional\proyecto\chloauricAcidPka\chloauricAcid.chk
 B after Tr=     0.000000    0.000000    0.000000
         Rot=    1.000000    0.000000    0.000000    0.000000 Ang=   0.00 deg.
 Initial guess orbital symmetries:
       Occupied  (A) (A) (A) (A) (A) (A) (A) (A) (A) (A) (A) (A)
                 (A) (A) (A) (A) (A) (A) (A) (A) (A) (A) (A) (A)
       Virtual   (A) (A) (A) (A) (A) (A) (A) (A) (A) (A) (A) (A)
                 (A) (A) (A) (A) (A) (A) (A) (A) (A) (A) (A) (A)
                 (A) (A) (A) (A) (A) (A) (A) (A)
 Requested convergence on RMS density matrix=1.00D-08 within 128 cycles.
 Requested convergence on MAX density matrix=1.00D-06.
 Requested convergence on             energy=1.00D-06.
 No special actions if energy rises.
 Keep R1 ints in memory in canonical form, NReq=6438936.
 Defaulting to unpruned grid for atomic number  79.
 Defaulting to unpruned grid for atomic number  79.
 Defaulting to unpruned grid for atomic number  79.
 Defaulting to unpruned grid for atomic number  79.
 Error on total polarization charges =  0.01443
 SCF Done:  E(RM062X) =  -195.438266952     A.U. after    1 cycles
             Convg  =    0.1431D-08             -V/T =  3.9603
 SMD-CDS (non-electrostatic) energy             (kcal/mol) =       2.05
 (included in total energy above)

 **********************************************************************

            Population analysis using the SCF density.

 **********************************************************************

 Orbital symmetries:
       Occupied  (A) (A) (A) (A) (A) (A) (A) (A) (A) (A) (A) (A)
                 (A) (A) (A) (A) (A) (A) (A) (A) (A) (A) (A) (A)
       Virtual   (A) (A) (A) (A) (A) (A) (A) (A) (A) (A) (A) (A)
                 (A) (A) (A) (A) (A) (A) (A) (A) (A) (A) (A) (A)
                 (A) (A) (A) (A) (A) (A) (A) (A)
 The electronic state is 1-A.
 Alpha  occ. eigenvalues --   -4.41173  -2.53225  -2.51216  -2.49674  -0.98106
 Alpha  occ. eigenvalues --   -0.86930  -0.84523  -0.80524  -0.58175  -0.49695
 Alpha  occ. eigenvalues --   -0.48909  -0.46568  -0.45957  -0.45626  -0.45072
 Alpha  occ. eigenvalues --   -0.44780  -0.39653  -0.38556  -0.37591  -0.37120
 Alpha  occ. eigenvalues --   -0.36738  -0.34363  -0.32093  -0.29868
 Alpha virt. eigenvalues --   -0.13509  -0.09962  -0.01476   0.02205   0.04512
 Alpha virt. eigenvalues --    0.07101   0.13518   0.21352   0.26318   0.39319
 Alpha virt. eigenvalues --    0.40466   0.40861   0.47482   0.53469   0.66773
 Alpha virt. eigenvalues --    0.67640   0.68662   0.74772   0.76813   0.78373
 Alpha virt. eigenvalues --    0.78497   0.80742   0.81491   0.86555   0.87012
 Alpha virt. eigenvalues --    0.93501   1.05464   2.99009   4.83636   6.94363
 Alpha virt. eigenvalues --    7.82630   8.16007
          Condensed to atoms (all electrons):
              1          2          3          4          5          6
     1  Au  17.890433   0.163184   0.004395   0.233345   0.001777   0.224968
     2  Cl   0.163184   7.049512  -0.000001  -0.000411   0.000000   0.049683
     3  Cl   0.004395  -0.000001   7.003369  -0.120831   0.099230  -0.000357
     4  Cl   0.233345  -0.000411  -0.120831   7.332108  -0.024884   0.004796
     5  Cl   0.001777   0.000000   0.099230  -0.024884   6.939190   0.000001
     6  H    0.224968   0.049683  -0.000357   0.004796   0.000001   0.515598
 Mulliken atomic charges:
              1
     1  Au   0.481898
     2  Cl  -0.261966
     3  Cl   0.014196
     4  Cl  -0.424123
     5  Cl  -0.015314
     6  H    0.205310
 Sum of Mulliken atomic charges =   0.00000
 Mulliken charges with hydrogens summed into heavy atoms:
              1
     1  Au   0.687208
     2  Cl  -0.261966
     3  Cl   0.014196
     4  Cl  -0.424123
     5  Cl  -0.015314
 Sum of Mulliken charges with hydrogens summed into heavy atoms =   0.00000
 Electronic spatial extent (au):  <R**2>=           1265.1767
 Charge=              0.0000 electrons
 Dipole moment (field-independent basis, Debye):
    X=              3.5380    Y=             -0.4234    Z=              0.6191  Tot=              3.6166
 Quadrupole moment (field-independent basis, Debye-Ang):
   XX=            -85.5079   YY=            -76.7977   ZZ=            -70.8446
   XY=            -12.1233   XZ=             -1.6317   YZ=             -2.4268
 Traceless Quadrupole moment (field-independent basis, Debye-Ang):
   XX=             -7.7912   YY=              0.9190   ZZ=              6.8721
   XY=            -12.1233   XZ=             -1.6317   YZ=             -2.4268
 Octapole moment (field-independent basis, Debye-Ang**2):
  XXX=             87.8667  YYY=            -33.5951  ZZZ=              5.0222  XYY=             40.0244
  XXY=            -32.7057  XXZ=              5.2396  XZZ=             33.3407  YZZ=            -10.8040
  YYZ=              2.1736  XYZ=              0.5550
 Hexadecapole moment (field-independent basis, Debye-Ang**3):
 XXXX=          -2791.7011 YYYY=           -462.1270 ZZZZ=           -208.8418 XXXY=            -91.7543
 XXXZ=            -23.5230 YYYX=            -70.4615 YYYZ=             -7.2733 ZZZX=             -4.8064
 ZZZY=             -8.9541 XXYY=           -547.2413 XXZZ=           -467.1400 YYZZ=           -111.8012
 XXYZ=             -6.7920 YYXZ=             -0.6141 ZZXY=            -20.1969
 N-N= 1.386512251068D+02 E-N=-6.776910849092D+02  KE= 6.602072130592D+01
   1 Symmetry operations used in ECPInt.
 ECPInt:  NShTT=     351 NPrTT=    1012 LenC2=     352 LenP2D=     946.
 LDataN:  DoStor=T MaxTD1= 7 Len=  274
 D1PCM: PCM CHGder 1st derivatives, ID1Alg=3 FixD1E=F DoIter=F DoCFld=F I1PDM=0.
 Calling FoFJK, ICntrl=      2127 FMM=F ISym2X=0 I1Cent= 0 IOpClX= 0 NMat=1 NMatS=1 NMatT=0.
 Defaulting to unpruned grid for atomic number  79.
 Defaulting to unpruned grid for atomic number  79.
 Defaulting to unpruned grid for atomic number  79.
 Defaulting to unpruned grid for atomic number  79.
 ***** Axes restored to original set *****
 -------------------------------------------------------------------
 Center     Atomic                   Forces (Hartrees/Bohr)
 Number     Number              X              Y              Z
 -------------------------------------------------------------------
      1       79           0.008074943    0.006769722    0.039824127
      2       17           0.001592300    0.003097061    0.001225123
      3       17          -0.019380238   -0.037078435   -0.005668400
      4       17           0.026901496    0.051943661   -0.023491631
      5       17          -0.005298334   -0.002066269    0.001471077
      6        1          -0.011890166   -0.022665741   -0.013360297
 -------------------------------------------------------------------
 Cartesian Forces:  Max     0.051943661 RMS     0.021518679

 GradGradGradGradGradGradGradGradGradGradGradGradGradGradGradGradGradGrad
 Berny optimization.
 Internal  Forces:  Max     0.064676769 RMS     0.029726483
 Search for a local minimum.
 Step number   1 out of a maximum of   31
 All quantities printed in internal units (Hartrees-Bohrs-Radians)
 Mixed Optimization -- RFO/linear search
 Second derivative matrix not updated -- first step.
     Eigenvalues ---    0.00471   0.00507   0.00841   0.00866   0.01954
     Eigenvalues ---    0.08105   0.10458   0.11820   0.15910   0.18879
     Eigenvalues ---    0.22924   0.278021000.000001000.000001000.00000
     Eigenvalues --- 1000.000001000.000001000.000001000.000001000.00000
     Eigenvalues --- 1000.00000
 RFO step:  Lambda=-8.42893036D-02 EMin= 4.71262262D-03
 Linear search not attempted -- first point.
 Maximum step size (   0.300) exceeded in Quadratic search.
    -- Step size scaled by   0.442
 Iteration  1 RMS(Cart)=  0.12379086 RMS(Int)=  0.00487903
 Iteration  2 RMS(Cart)=  0.00472991 RMS(Int)=  0.00075330
 Iteration  3 RMS(Cart)=  0.00001367 RMS(Int)=  0.00075326
 Iteration  4 RMS(Cart)=  0.00000002 RMS(Int)=  0.00075326
 Variable       Old X    -DE/DX   Delta X   Delta X   Delta X     New X
                                 (Linear)    (Quad)   (Total)
    R1        4.76650  -0.00120   0.00000  -0.00263  -0.00263   4.76387
    R2        8.16988   0.03394   0.00000   0.16152   0.16152   8.33140
    R3        5.09463  -0.04508   0.00000  -0.12059  -0.12059   4.97404
    R4        9.48426   0.00512   0.00000   0.02544   0.02544   9.50969
    R5        2.78984   0.02857   0.00000   0.03487   0.03487   2.82472
    A1        2.05783  -0.02524   0.00000  -0.04125  -0.04180   2.01603
    A2        2.70975   0.03934   0.00000   0.07209   0.07329   2.78304
    A3        2.20509  -0.00939   0.00000  -0.01084  -0.01061   2.19448
    A4        0.92307  -0.00632   0.00000  -0.00795  -0.00808   0.91499
    A5        0.65196   0.06468   0.00000   0.11349   0.11534   0.76730
    A6        0.44719   0.03472   0.00000   0.04281   0.04220   0.48939
    A7        1.13503  -0.01912   0.00000  -0.03351  -0.03388   1.10115
    A8        0.58833   0.05009   0.00000   0.07712   0.07668   0.66500
    A9        1.37198   0.00442   0.00000   0.00490   0.00497   1.37696
    D1       -0.01800  -0.01952   0.00000  -0.02948  -0.02879  -0.04680
    D2        1.37920  -0.00389   0.00000  -0.03263  -0.03253   1.34666
    D3       -3.11596  -0.00917   0.00000  -0.00935  -0.00902  -3.12497
    D4        2.76211   0.03131   0.00000   0.06940   0.06824   2.83035
    D5       -2.71527   0.01983   0.00000   0.02102   0.02010  -2.69517
    D6        1.38291   0.03520   0.00000   0.10203   0.10077   1.48368
    D7        0.40069   0.02900   0.00000   0.03037   0.02911   0.42980
         Item               Value     Threshold  Converged?
 Maximum Force            0.064677     0.000450     NO 
 RMS     Force            0.029726     0.000300     NO 
 Maximum Displacement     0.325107     0.001800     NO 
 RMS     Displacement     0.123754     0.001200     NO 
 Predicted change in Energy=-3.275323D-02
 GradGradGradGradGradGradGradGradGradGradGradGradGradGradGradGradGradGrad

                          Input orientation:                          
 ---------------------------------------------------------------------
 Center     Atomic      Atomic             Coordinates (Angstroms)
 Number     Number       Type             X           Y           Z
 ---------------------------------------------------------------------
      1         79           0        0.262636    1.867579   -1.007668
      2         17           0       -0.003159    1.949671   -3.513204
      3         17           0       -1.253864   -1.783267    0.943987
      4         17           0        0.154033    0.940397    1.453376
      5         17           0       -2.804319   -0.509112    2.196908
      6          1           0       -0.327097    0.820442   -1.896528
 ---------------------------------------------------------------------
                    Distance matrix (angstroms):
                    1          2          3          4          5
     1  Au   0.000000
     2  Cl   2.520932   0.000000
     3  Cl   4.408787   5.946902   0.000000
     4  Cl   2.632146   5.070529   3.108053   0.000000
     5  Cl   5.032313   6.818907   2.365839   3.377241   0.000000
     6  H    1.494775   1.998433   3.963171   3.386404   4.965940
                    6
     6  H    0.000000
 Stoichiometry    AuCl4H
 Framework group  C1[X(AuCl4H)]
 Deg. of freedom    12
 Full point group                 C1      NOp   1
 Largest Abelian subgroup         C1      NOp   1
 Largest concise Abelian subgroup C1      NOp   1
                         Standard orientation:                         
 ---------------------------------------------------------------------
 Center     Atomic      Atomic             Coordinates (Angstroms)
 Number     Number       Type             X           Y           Z
 ---------------------------------------------------------------------
      1         79           0        1.093268   -0.324463    0.022431
      2         17           0        2.869978    1.454990    0.201174
      3         17           0       -2.949500    1.122583   -0.977310
      4         17           0       -1.264529   -1.421131   -0.385380
      5         17           0       -3.791399    0.283904    1.068422
      6          1           0        0.934489    1.146680   -0.189421
 ---------------------------------------------------------------------
 Rotational constants (GHZ):      1.7243676      0.3453636      0.3165963
 Standard basis: LANL2DZ (5D, 7F)
 There are    56 symmetry adapted basis functions of A   symmetry.
 Integral buffers will be    262144 words long.
 Raffenetti 2 integral format.
 Two-electron integral symmetry is turned on.
    56 basis functions,    95 primitive gaussians,    58 cartesian basis functions
    24 alpha electrons       24 beta electrons
       nuclear repulsion energy       136.2182845898 Hartrees.
 NAtoms=    6 NActive=    6 NUniq=    6 SFac= 7.50D-01 NAtFMM=   80 NAOKFM=F Big=F
 ------------------------------------------------------------------------------
 Polarizable Continuum Model (PCM)
 =================================
 Model                : PCM.
 Atomic radii         : SMD-Coulomb.
 Polarization charges : Total charges.
 Charge compensation  : None.
 Solution method      : Matrix inversion.
 Cavity type          : VdW (van der Waals Surface) (Alpha=1.000).
 Cavity algorithm     : GePol (No added spheres)
                        Default sphere list used, NSphG=    6.
                        Lebedev-Laikov grids with approx.  5.0 points / Ang**2.
                        Smoothing algorithm: Karplus/York (Gamma=1.0000).
                        Polarization charges: spherical gaussians, with
                                              point-specific exponents (IZeta= 3).
                        Self-potential: point-specific (ISelfS= 7).
                        Self-field    : sphere-specific E.n sum rule (ISelfD= 2).
 1st derivatives      : Analytical E(r).r(x)/FMM algorithm (CHGder, D1EAlg=3).
                        Cavity 1st derivative terms included.
 Solvent              : Water, Eps=  78.355300 Eps(inf)=   1.777849
 ------------------------------------------------------------------------------
 Spheres list:
 ISph  on   Nord    Re0     Alpha      Xe            Ye            Ze
    1  Au      1    1.660   1.000      1.093268     -0.324463      0.022431
    2  Cl      2    2.380   1.000      2.869978      1.454990      0.201174
    3  Cl      3    2.380   1.000     -2.949500      1.122583     -0.977310
    4  Cl      4    2.380   1.000     -1.264529     -1.421131     -0.385380
    5  Cl      5    2.380   1.000     -3.791399      0.283904      1.068422
    6   H      6    1.200   1.000      0.934489      1.146680     -0.189421
 ------------------------------------------------------------------------------
 ------------------------------------------------------------------------------
 Atomic radii for non-electrostatic terms: SMD-CDS.
 ------------------------------------------------------------------------------
 Nuclear repulsion after PCM non-electrostatic terms =      136.2216630896 Hartrees.
 One-electron integrals computed using PRISM.
   1 Symmetry operations used in ECPInt.
 ECPInt:  NShTT=     351 NPrTT=    1012 LenC2=     352 LenP2D=     941.
 LDataN:  DoStor=T MaxTD1= 6 Len=  172
 NBasis=    56 RedAO= T  NBF=    56
 NBsUse=    56 1.00D-06 NBFU=    56
 Defaulting to unpruned grid for atomic number  79.
 Initial guess read from the read-write file.
 B after Tr=     0.000000    0.000000    0.000000
         Rot=    1.000000    0.000000    0.000000    0.000000 Ang=   0.00 deg.
 Initial guess orbital symmetries:
       Occupied  (A) (A) (A) (A) (A) (A) (A) (A) (A) (A) (A) (A)
                 (A) (A) (A) (A) (A) (A) (A) (A) (A) (A) (A) (A)
       Virtual   (A) (A) (A) (A) (A) (A) (A) (A) (A) (A) (A) (A)
                 (A) (A) (A) (A) (A) (A) (A) (A) (A) (A) (A) (A)
                 (A) (A) (A) (A) (A) (A) (A) (A)
 Harris functional with IExCor= 1009 diagonalized for initial guess.
 ExpMin= 2.79D-02 ExpMax= 1.92D+01 ExpMxC= 1.92D+01 IAcc=3 IRadAn=         0 AccDes= 0.00D+00
 HarFok:  IExCor= 1009 AccDes= 0.00D+00 IRadAn=         0 IDoV= 1
 ScaDFX=  1.000000  1.000000  1.000000  1.000000
 Defaulting to unpruned grid for atomic number  79.
 Defaulting to unpruned grid for atomic number  79.
 Defaulting to unpruned grid for atomic number  79.
 Defaulting to unpruned grid for atomic number  79.
 FoFCou: FMM=F IPFlag=           0 FMFlag=      100000 FMFlg1=           0
         NFxFlg=           0 DoJE=T BraDBF=F KetDBF=T FulRan=T
         Omega=  0.000000  0.000000  1.000000  0.000000  0.000000 ICntrl=     500 IOpCl=  0
         NMat0=    1 NMatS0=    1 NMatT0=    0 NMatD0=    1 NMtDS0=    0 NMtDT0=    0
         I1Cent=           4 NGrid=           0.
 Petite list used in FoFCou.
 Requested convergence on RMS density matrix=1.00D-08 within 128 cycles.
 Requested convergence on MAX density matrix=1.00D-06.
 Requested convergence on             energy=1.00D-06.
 No special actions if energy rises.
 Keep R1 ints in memory in canonical form, NReq=6575345.
 Defaulting to unpruned grid for atomic number  79.
 Defaulting to unpruned grid for atomic number  79.
 Defaulting to unpruned grid for atomic number  79.
 Defaulting to unpruned grid for atomic number  79.
 Error on total polarization charges =  0.01395
 SCF Done:  E(RM062X) =  -195.453209892     A.U. after   16 cycles
             Convg  =    0.3847D-08             -V/T =  3.9686
 SMD-CDS (non-electrostatic) energy             (kcal/mol) =       2.12
 (included in total energy above)
   1 Symmetry operations used in ECPInt.
 ECPInt:  NShTT=     351 NPrTT=    1012 LenC2=     352 LenP2D=     941.
 LDataN:  DoStor=T MaxTD1= 7 Len=  274
 D1PCM: PCM CHGder 1st derivatives, ID1Alg=3 FixD1E=F DoIter=F DoCFld=F I1PDM=0.
 Calling FoFJK, ICntrl=      2127 FMM=F ISym2X=0 I1Cent= 0 IOpClX= 0 NMat=1 NMatS=1 NMatT=0.
 Defaulting to unpruned grid for atomic number  79.
 Defaulting to unpruned grid for atomic number  79.
 Defaulting to unpruned grid for atomic number  79.
 Defaulting to unpruned grid for atomic number  79.
 ***** Axes restored to original set *****
 -------------------------------------------------------------------
 Center     Atomic                   Forces (Hartrees/Bohr)
 Number     Number              X              Y              Z
 -------------------------------------------------------------------
      1       79           0.007680988    0.007282950    0.033661189
      2       17           0.000642471    0.002515103    0.001454510
      3       17          -0.031024366    0.011757439    0.019202173
      4       17           0.007704577    0.019155446   -0.024178528
      5       17           0.023999033   -0.022394085   -0.020772516
      6        1          -0.009002703   -0.018316853   -0.009366829
 -------------------------------------------------------------------
 Cartesian Forces:  Max     0.033661189 RMS     0.017869236

 GradGradGradGradGradGradGradGradGradGradGradGradGradGradGradGradGradGrad
 Berny optimization.
 Using GEDIIS/GDIIS optimizer.
 Internal  Forces:  Max     0.118034483 RMS     0.043161107
 Search for a local minimum.
 Step number   2 out of a maximum of   31
 All quantities printed in internal units (Hartrees-Bohrs-Radians)
 Mixed Optimization -- RFO/linear search
 Update second derivatives using D2CorX and points    1    2
 DE= -1.49D-02 DEPred=-3.28D-02 R= 4.56D-01
 Trust test= 4.56D-01 RLast= 3.00D-01 DXMaxT set to 3.00D-01
 Use linear search instead of GDIIS.
     Eigenvalues ---    0.00467   0.00490   0.00821   0.01016   0.01562
     Eigenvalues ---    0.05615   0.09951   0.11821   0.15905   0.21630
     Eigenvalues ---    0.27299   1.839831000.000001000.000001000.00000
     Eigenvalues --- 1000.000001000.000001000.000001000.000001000.00000
     Eigenvalues --- 1000.00000
 RFO step:  Lambda=-8.36693652D-02 EMin= 4.66756738D-03
 Quartic linear search produced a step of -0.07197.
 Maximum step size (   0.300) exceeded in Quadratic search.
    -- Step size scaled by   0.379
 Iteration  1 RMS(Cart)=  0.13737636 RMS(Int)=  0.00507064
 Iteration  2 RMS(Cart)=  0.00485842 RMS(Int)=  0.00291352
 Iteration  3 RMS(Cart)=  0.00001791 RMS(Int)=  0.00291351
 Iteration  4 RMS(Cart)=  0.00000015 RMS(Int)=  0.00291351
 Variable       Old X    -DE/DX   Delta X   Delta X   Delta X     New X
                                 (Linear)    (Quad)   (Total)
    R1        4.76387  -0.00130   0.00019  -0.00341  -0.00322   4.76066
    R2        8.33140   0.00943  -0.01162   0.08868   0.07706   8.40846
    R3        4.97404  -0.02978   0.00868  -0.12425  -0.11557   4.85847
    R4        9.50969  -0.01732  -0.00183  -0.02960  -0.03143   9.47827
    R5        2.82472   0.02207  -0.00251   0.04511   0.04260   2.86732
    A1        2.01603   0.02356   0.00301  -0.01397  -0.01059   2.00544
    A2        2.78304  -0.00979  -0.00527   0.06728   0.06563   2.84867
    A3        2.19448  -0.04549   0.00076  -0.04059  -0.03796   2.15652
    A4        0.91499  -0.00588   0.00058  -0.00987  -0.00822   0.90677
    A5        0.76730  -0.03302  -0.00830   0.08208   0.07733   0.84464
    A6        0.48939  -0.11803  -0.00304  -0.06672  -0.07179   0.41759
    A7        1.10115   0.02991   0.00244  -0.00358  -0.00115   1.10000
    A8        0.66500   0.01081  -0.00552   0.07962   0.07873   0.74373
    A9        1.37696  -0.06546  -0.00036  -0.04216  -0.04185   1.33511
    D1       -0.04680  -0.02598   0.00207  -0.06816  -0.06204  -0.10883
    D2        1.34666   0.01460   0.00234  -0.02687  -0.02771   1.31896
    D3       -3.12497   0.03581   0.00065   0.04036   0.04195  -3.08303
    D4        2.83035   0.04784  -0.00491   0.10359   0.09111   2.92145
    D5       -2.69517  -0.04565  -0.00145  -0.01465  -0.01856  -2.71374
    D6        1.48368   0.03324  -0.00725   0.13046   0.11881   1.60250
    D7        0.42980  -0.08146  -0.00210  -0.05501  -0.06051   0.36929
         Item               Value     Threshold  Converged?
 Maximum Force            0.118034     0.000450     NO 
 RMS     Force            0.043161     0.000300     NO 
 Maximum Displacement     0.323994     0.001800     NO 
 RMS     Displacement     0.139825     0.001200     NO 
 Predicted change in Energy=-3.001051D-02
 GradGradGradGradGradGradGradGradGradGradGradGradGradGradGradGradGradGrad

                          Input orientation:                          
 ---------------------------------------------------------------------
 Center     Atomic      Atomic             Coordinates (Angstroms)
 Number     Number       Type             X           Y           Z
 ---------------------------------------------------------------------
      1         79           0        0.286134    1.853853   -0.994056
      2         17           0       -0.023046    1.932204   -3.493014
      3         17           0       -1.425314   -1.740273    0.993863
      4         17           0        0.290251    1.097522    1.463165
      5         17           0       -2.756971   -0.662322    2.098749
      6          1           0       -0.342823    0.804726   -1.891835
 ---------------------------------------------------------------------
                    Distance matrix (angstroms):
                    1          2          3          4          5
     1  Au   0.000000
     2  Cl   2.519231   0.000000
     3  Cl   4.449564   5.965360   0.000000
     4  Cl   2.570990   5.035728   3.349103   0.000000
     5  Cl   5.015682   6.743421   2.038642   3.575833   0.000000
     6  H    1.517320   1.984247   3.997007   3.426739   4.889284
                    6
     6  H    0.000000
 Stoichiometry    AuCl4H
 Framework group  C1[X(AuCl4H)]
 Deg. of freedom    12
 Full point group                 C1      NOp   1
 Largest Abelian subgroup         C1      NOp   1
 Largest concise Abelian subgroup C1      NOp   1
                         Standard orientation:                         
 ---------------------------------------------------------------------
 Center     Atomic      Atomic             Coordinates (Angstroms)
 Number     Number       Type             X           Y           Z
 ---------------------------------------------------------------------
      1         79           0        1.094049   -0.303099    0.032019
      2         17           0        2.803210    1.546056    0.108950
      3         17           0       -3.054620    1.017095   -0.886815
      4         17           0       -1.091334   -1.624207   -0.265912
      5         17           0       -3.793725    0.400658    0.910347
      6          1           0        0.890101    1.171581   -0.261213
 ---------------------------------------------------------------------
 Rotational constants (GHZ):      1.7060956      0.3513726      0.3128789
 Standard basis: LANL2DZ (5D, 7F)
 There are    56 symmetry adapted basis functions of A   symmetry.
 Integral buffers will be    262144 words long.
 Raffenetti 2 integral format.
 Two-electron integral symmetry is turned on.
    56 basis functions,    95 primitive gaussians,    58 cartesian basis functions
    24 alpha electrons       24 beta electrons
       nuclear repulsion energy       137.4740865600 Hartrees.
 NAtoms=    6 NActive=    6 NUniq=    6 SFac= 7.50D-01 NAtFMM=   80 NAOKFM=F Big=F
 ------------------------------------------------------------------------------
 Polarizable Continuum Model (PCM)
 =================================
 Model                : PCM.
 Atomic radii         : SMD-Coulomb.
 Polarization charges : Total charges.
 Charge compensation  : None.
 Solution method      : Matrix inversion.
 Cavity type          : VdW (van der Waals Surface) (Alpha=1.000).
 Cavity algorithm     : GePol (No added spheres)
                        Default sphere list used, NSphG=    6.
                        Lebedev-Laikov grids with approx.  5.0 points / Ang**2.
                        Smoothing algorithm: Karplus/York (Gamma=1.0000).
                        Polarization charges: spherical gaussians, with
                                              point-specific exponents (IZeta= 3).
                        Self-potential: point-specific (ISelfS= 7).
                        Self-field    : sphere-specific E.n sum rule (ISelfD= 2).
 1st derivatives      : Analytical E(r).r(x)/FMM algorithm (CHGder, D1EAlg=3).
                        Cavity 1st derivative terms included.
 Solvent              : Water, Eps=  78.355300 Eps(inf)=   1.777849
 ------------------------------------------------------------------------------
 Spheres list:
 ISph  on   Nord    Re0     Alpha      Xe            Ye            Ze
    1  Au      1    1.660   1.000      1.094049     -0.303099      0.032019
    2  Cl      2    2.380   1.000      2.803210      1.546056      0.108950
    3  Cl      3    2.380   1.000     -3.054620      1.017095     -0.886815
    4  Cl      4    2.380   1.000     -1.091334     -1.624207     -0.265912
    5  Cl      5    2.380   1.000     -3.793725      0.400658      0.910347
    6   H      6    1.200   1.000      0.890101      1.171581     -0.261213
 ------------------------------------------------------------------------------
 ------------------------------------------------------------------------------
 Atomic radii for non-electrostatic terms: SMD-CDS.
 ------------------------------------------------------------------------------
 Nuclear repulsion after PCM non-electrostatic terms =      137.4774921154 Hartrees.
 One-electron integrals computed using PRISM.
   1 Symmetry operations used in ECPInt.
 ECPInt:  NShTT=     351 NPrTT=    1012 LenC2=     352 LenP2D=     943.
 LDataN:  DoStor=T MaxTD1= 6 Len=  172
 NBasis=    56 RedAO= T  NBF=    56
 NBsUse=    56 1.00D-06 NBFU=    56
 Defaulting to unpruned grid for atomic number  79.
 Initial guess read from the read-write file.
 B after Tr=     0.000000    0.000000    0.000000
         Rot=    1.000000    0.000000    0.000000    0.000000 Ang=   0.00 deg.
 Initial guess orbital symmetries:
       Occupied  (A) (A) (A) (A) (A) (A) (A) (A) (A) (A) (A) (A)
                 (A) (A) (A) (A) (A) (A) (A) (A) (A) (A) (A) (A)
       Virtual   (A) (A) (A) (A) (A) (A) (A) (A) (A) (A) (A) (A)
                 (A) (A) (A) (A) (A) (A) (A) (A) (A) (A) (A) (A)
                 (A) (A) (A) (A) (A) (A) (A) (A)
 Harris functional with IExCor= 1009 diagonalized for initial guess.
 ExpMin= 2.79D-02 ExpMax= 1.92D+01 ExpMxC= 1.92D+01 IAcc=3 IRadAn=         0 AccDes= 0.00D+00
 HarFok:  IExCor= 1009 AccDes= 0.00D+00 IRadAn=         0 IDoV= 1
 ScaDFX=  1.000000  1.000000  1.000000  1.000000
 Defaulting to unpruned grid for atomic number  79.
 Defaulting to unpruned grid for atomic number  79.
 Defaulting to unpruned grid for atomic number  79.
 Defaulting to unpruned grid for atomic number  79.
 FoFCou: FMM=F IPFlag=           0 FMFlag=      100000 FMFlg1=           0
         NFxFlg=           0 DoJE=T BraDBF=F KetDBF=T FulRan=T
         Omega=  0.000000  0.000000  1.000000  0.000000  0.000000 ICntrl=     500 IOpCl=  0
         NMat0=    1 NMatS0=    1 NMatT0=    0 NMatD0=    1 NMtDS0=    0 NMtDT0=    0
         I1Cent=           4 NGrid=           0.
 Petite list used in FoFCou.
 Requested convergence on RMS density matrix=1.00D-08 within 128 cycles.
 Requested convergence on MAX density matrix=1.00D-06.
 Requested convergence on             energy=1.00D-06.
 No special actions if energy rises.
 Keep R1 ints in memory in canonical form, NReq=6596109.
 Defaulting to unpruned grid for atomic number  79.
 Defaulting to unpruned grid for atomic number  79.
 Defaulting to unpruned grid for atomic number  79.
 Defaulting to unpruned grid for atomic number  79.
 Error on total polarization charges =  0.01376
 SCF Done:  E(RM062X) =  -195.460247973     A.U. after   14 cycles
             Convg  =    0.3589D-08             -V/T =  3.9604
 SMD-CDS (non-electrostatic) energy             (kcal/mol) =       2.14
 (included in total energy above)
   1 Symmetry operations used in ECPInt.
 ECPInt:  NShTT=     351 NPrTT=    1012 LenC2=     352 LenP2D=     943.
 LDataN:  DoStor=T MaxTD1= 7 Len=  274
 D1PCM: PCM CHGder 1st derivatives, ID1Alg=3 FixD1E=F DoIter=F DoCFld=F I1PDM=0.
 Calling FoFJK, ICntrl=      2127 FMM=F ISym2X=0 I1Cent= 0 IOpClX= 0 NMat=1 NMatS=1 NMatT=0.
 Defaulting to unpruned grid for atomic number  79.
 Defaulting to unpruned grid for atomic number  79.
 Defaulting to unpruned grid for atomic number  79.
 Defaulting to unpruned grid for atomic number  79.
 ***** Axes restored to original set *****
 -------------------------------------------------------------------
 Center     Atomic                   Forces (Hartrees/Bohr)
 Number     Number              X              Y              Z
 -------------------------------------------------------------------
      1       79           0.005926832    0.005700729    0.024754015
      2       17           0.000502941    0.000575700    0.001833830
      3       17           0.037782420   -0.035767967   -0.033410664
      4       17           0.002281458    0.009878199   -0.019856994
      5       17          -0.039551107    0.032811145    0.032517662
      6        1          -0.006942544   -0.013197806   -0.005837850
 -------------------------------------------------------------------
 Cartesian Forces:  Max     0.039551107 RMS     0.022310026

 GradGradGradGradGradGradGradGradGradGradGradGradGradGradGradGradGradGrad
 Berny optimization.
 Using GEDIIS/GDIIS optimizer.
 Internal  Forces:  Max     0.204559169 RMS     0.071613799
 Search for a local minimum.
 Step number   3 out of a maximum of   31
 All quantities printed in internal units (Hartrees-Bohrs-Radians)
 Mixed Optimization -- RFO/linear search
 Update second derivatives using D2CorX and points    1    2    3
 DE= -7.04D-03 DEPred=-3.00D-02 R= 2.35D-01
 Trust test= 2.35D-01 RLast= 2.83D-01 DXMaxT set to 3.00D-01
 Use linear search instead of GDIIS.
     Eigenvalues ---    0.00397   0.00483   0.00730   0.01080   0.01900
     Eigenvalues ---    0.04058   0.10613   0.11835   0.16132   0.20964
     Eigenvalues ---    0.27816   4.207111000.000001000.000001000.00000
     Eigenvalues --- 1000.000001000.000001000.000001000.000001000.00000
     Eigenvalues --- 1000.00000
 RFO step:  Lambda=-5.50212835D-02 EMin= 3.97216336D-03
 Quartic linear search produced a step of -0.34789.
 Maximum step size (   0.300) exceeded in Quadratic search.
    -- Step size scaled by   0.384
 Iteration  1 RMS(Cart)=  0.09141261 RMS(Int)=  0.00373812
 Iteration  2 RMS(Cart)=  0.00306547 RMS(Int)=  0.00141744
 Iteration  3 RMS(Cart)=  0.00002666 RMS(Int)=  0.00141733
 Iteration  4 RMS(Cart)=  0.00000013 RMS(Int)=  0.00141733
 Variable       Old X    -DE/DX   Delta X   Delta X   Delta X     New X
                                 (Linear)    (Quad)   (Total)
    R1        4.76066  -0.00211   0.00112  -0.00818  -0.00706   4.75360
    R2        8.40846  -0.00054  -0.02681   0.04544   0.01863   8.42709
    R3        4.85847  -0.02167   0.04021  -0.19940  -0.15919   4.69928
    R4        9.47827   0.02764   0.01093  -0.00484   0.00610   9.48436
    R5        2.86732   0.01524  -0.01482   0.07450   0.05968   2.92700
    A1        2.00544  -0.04463   0.00368  -0.03131  -0.02801   1.97743
    A2        2.84867   0.02738  -0.02283   0.07784   0.05324   2.90191
    A3        2.15652   0.06440   0.01321  -0.02591  -0.01392   2.14260
    A4        0.90677   0.01537   0.00286   0.00369   0.00598   0.91275
    A5        0.84464   0.07136  -0.02690   0.11022   0.08185   0.92649
    A6        0.41759   0.20456   0.02498   0.01079   0.03628   0.45387
    A7        1.10000  -0.06286   0.00040  -0.03482  -0.03443   1.06557
    A8        0.74373  -0.00633  -0.02739   0.09537   0.06536   0.80909
    A9        1.33511   0.09243   0.01456  -0.02507  -0.01087   1.32424
    D1       -0.10883   0.02241   0.02158  -0.05088  -0.03097  -0.13980
    D2        1.31896  -0.02580   0.00964  -0.00839   0.00288   1.32184
    D3       -3.08303  -0.06202  -0.01459   0.00480  -0.01015  -3.09317
    D4        2.92145  -0.05396  -0.03170   0.06105   0.03312   2.95457
    D5       -2.71374   0.08938   0.00646   0.01596   0.02353  -2.69021
    D6        1.60250  -0.02816  -0.04133   0.06944   0.03023   1.63273
    D7        0.36929   0.15140   0.02105   0.01115   0.03368   0.40297
         Item               Value     Threshold  Converged?
 Maximum Force            0.204559     0.000450     NO 
 RMS     Force            0.071614     0.000300     NO 
 Maximum Displacement     0.216457     0.001800     NO 
 RMS     Displacement     0.090052     0.001200     NO 
 Predicted change in Energy=-1.803923D-02
 GradGradGradGradGradGradGradGradGradGradGradGradGradGradGradGradGradGrad

                          Input orientation:                          
 ---------------------------------------------------------------------
 Center     Atomic      Atomic             Coordinates (Angstroms)
 Number     Number       Type             X           Y           Z
 ---------------------------------------------------------------------
      1         79           0        0.285608    1.841749   -0.961559
      2         17           0       -0.038646    1.924165   -3.454706
      3         17           0       -1.412219   -1.828791    0.917533
      4         17           0        0.384082    1.212066    1.442131
      5         17           0       -2.828032   -0.629906    2.102033
      6          1           0       -0.362562    0.766427   -1.868563
 ---------------------------------------------------------------------
                    Distance matrix (angstroms):
                    1          2          3          4          5
     1  Au   0.000000
     2  Cl   2.515494   0.000000
     3  Cl   4.459425   5.923500   0.000000
     4  Cl   2.486750   4.966366   3.570534   0.000000
     5  Cl   5.018908   6.721704   2.201111   3.761117   0.000000
     6  H    1.548902   1.990258   3.949591   3.422977   4.877902
                    6
     6  H    0.000000
 Stoichiometry    AuCl4H
 Framework group  C1[X(AuCl4H)]
 Deg. of freedom    12
 Full point group                 C1      NOp   1
 Largest Abelian subgroup         C1      NOp   1
 Largest concise Abelian subgroup C1      NOp   1
                         Standard orientation:                         
 ---------------------------------------------------------------------
 Center     Atomic      Atomic             Coordinates (Angstroms)
 Number     Number       Type             X           Y           Z
 ---------------------------------------------------------------------
      1         79           0        1.077068   -0.290945    0.027373
      2         17           0        2.742116    1.590393    0.153456
      3         17           0       -3.053892    1.072507   -0.953769
      4         17           0       -0.931861   -1.721547   -0.291227
      5         17           0       -3.810350    0.339318    0.978870
      6          1           0        0.829409    1.213201   -0.247053
 ---------------------------------------------------------------------
 Rotational constants (GHZ):      1.5630839      0.3554375      0.3145737
 Standard basis: LANL2DZ (5D, 7F)
 There are    56 symmetry adapted basis functions of A   symmetry.
 Integral buffers will be    262144 words long.
 Raffenetti 2 integral format.
 Two-electron integral symmetry is turned on.
    56 basis functions,    95 primitive gaussians,    58 cartesian basis functions
    24 alpha electrons       24 beta electrons
       nuclear repulsion energy       136.6111163008 Hartrees.
 NAtoms=    6 NActive=    6 NUniq=    6 SFac= 7.50D-01 NAtFMM=   80 NAOKFM=F Big=F
 ------------------------------------------------------------------------------
 Polarizable Continuum Model (PCM)
 =================================
 Model                : PCM.
 Atomic radii         : SMD-Coulomb.
 Polarization charges : Total charges.
 Charge compensation  : None.
 Solution method      : Matrix inversion.
 Cavity type          : VdW (van der Waals Surface) (Alpha=1.000).
 Cavity algorithm     : GePol (No added spheres)
                        Default sphere list used, NSphG=    6.
                        Lebedev-Laikov grids with approx.  5.0 points / Ang**2.
                        Smoothing algorithm: Karplus/York (Gamma=1.0000).
                        Polarization charges: spherical gaussians, with
                                              point-specific exponents (IZeta= 3).
                        Self-potential: point-specific (ISelfS= 7).
                        Self-field    : sphere-specific E.n sum rule (ISelfD= 2).
 1st derivatives      : Analytical E(r).r(x)/FMM algorithm (CHGder, D1EAlg=3).
                        Cavity 1st derivative terms included.
 Solvent              : Water, Eps=  78.355300 Eps(inf)=   1.777849
 ------------------------------------------------------------------------------
 Spheres list:
 ISph  on   Nord    Re0     Alpha      Xe            Ye            Ze
    1  Au      1    1.660   1.000      1.077068     -0.290945      0.027373
    2  Cl      2    2.380   1.000      2.742116      1.590393      0.153456
    3  Cl      3    2.380   1.000     -3.053892      1.072507     -0.953769
    4  Cl      4    2.380   1.000     -0.931861     -1.721547     -0.291227
    5  Cl      5    2.380   1.000     -3.810350      0.339318      0.978870
    6   H      6    1.200   1.000      0.829409      1.213201     -0.247053
 ------------------------------------------------------------------------------
 ------------------------------------------------------------------------------
 Atomic radii for non-electrostatic terms: SMD-CDS.
 ------------------------------------------------------------------------------
 Nuclear repulsion after PCM non-electrostatic terms =      136.6146273624 Hartrees.
 One-electron integrals computed using PRISM.
   1 Symmetry operations used in ECPInt.
 ECPInt:  NShTT=     351 NPrTT=    1012 LenC2=     352 LenP2D=     944.
 LDataN:  DoStor=T MaxTD1= 6 Len=  172
 NBasis=    56 RedAO= T  NBF=    56
 NBsUse=    56 1.00D-06 NBFU=    56
 Defaulting to unpruned grid for atomic number  79.
 Initial guess read from the read-write file.
 B after Tr=     0.000000    0.000000    0.000000
         Rot=    1.000000    0.000000    0.000000    0.000000 Ang=   0.00 deg.
 Initial guess orbital symmetries:
       Occupied  (A) (A) (A) (A) (A) (A) (A) (A) (A) (A) (A) (A)
                 (A) (A) (A) (A) (A) (A) (A) (A) (A) (A) (A) (A)
       Virtual   (A) (A) (A) (A) (A) (A) (A) (A) (A) (A) (A) (A)
                 (A) (A) (A) (A) (A) (A) (A) (A) (A) (A) (A) (A)
                 (A) (A) (A) (A) (A) (A) (A) (A)
 Harris functional with IExCor= 1009 diagonalized for initial guess.
 ExpMin= 2.79D-02 ExpMax= 1.92D+01 ExpMxC= 1.92D+01 IAcc=3 IRadAn=         0 AccDes= 0.00D+00
 HarFok:  IExCor= 1009 AccDes= 0.00D+00 IRadAn=         0 IDoV= 1
 ScaDFX=  1.000000  1.000000  1.000000  1.000000
 Defaulting to unpruned grid for atomic number  79.
 Defaulting to unpruned grid for atomic number  79.
 Defaulting to unpruned grid for atomic number  79.
 Defaulting to unpruned grid for atomic number  79.
 FoFCou: FMM=F IPFlag=           0 FMFlag=      100000 FMFlg1=           0
         NFxFlg=           0 DoJE=T BraDBF=F KetDBF=T FulRan=T
         Omega=  0.000000  0.000000  1.000000  0.000000  0.000000 ICntrl=     500 IOpCl=  0
         NMat0=    1 NMatS0=    1 NMatT0=    0 NMatD0=    1 NMtDS0=    0 NMtDT0=    0
         I1Cent=           4 NGrid=           0.
 Petite list used in FoFCou.
 Requested convergence on RMS density matrix=1.00D-08 within 128 cycles.
 Requested convergence on MAX density matrix=1.00D-06.
 Requested convergence on             energy=1.00D-06.
 No special actions if energy rises.
 Keep R1 ints in memory in canonical form, NReq=6652834.
 Defaulting to unpruned grid for atomic number  79.
 Defaulting to unpruned grid for atomic number  79.
 Defaulting to unpruned grid for atomic number  79.
 Defaulting to unpruned grid for atomic number  79.
 Error on total polarization charges =  0.01354
 SCF Done:  E(RM062X) =  -195.472608702     A.U. after   13 cycles
             Convg  =    0.9402D-08             -V/T =  3.9672
 SMD-CDS (non-electrostatic) energy             (kcal/mol) =       2.20
 (included in total energy above)
   1 Symmetry operations used in ECPInt.
 ECPInt:  NShTT=     351 NPrTT=    1012 LenC2=     352 LenP2D=     944.
 LDataN:  DoStor=T MaxTD1= 7 Len=  274
 D1PCM: PCM CHGder 1st derivatives, ID1Alg=3 FixD1E=F DoIter=F DoCFld=F I1PDM=0.
 Calling FoFJK, ICntrl=      2127 FMM=F ISym2X=0 I1Cent= 0 IOpClX= 0 NMat=1 NMatS=1 NMatT=0.
 Defaulting to unpruned grid for atomic number  79.
 Defaulting to unpruned grid for atomic number  79.
 Defaulting to unpruned grid for atomic number  79.
 Defaulting to unpruned grid for atomic number  79.
 ***** Axes restored to original set *****
 -------------------------------------------------------------------
 Center     Atomic                   Forces (Hartrees/Bohr)
 Number     Number              X              Y              Z
 -------------------------------------------------------------------
      1       79           0.004415787    0.003125551    0.010708807
      2       17          -0.000580433   -0.000034450    0.002945677
      3       17          -0.003038090    0.001083234    0.002311143
      4       17          -0.000988974    0.003725089   -0.011837610
      5       17           0.003006027   -0.001649791   -0.002945472
      6        1          -0.002814316   -0.006249631   -0.001182545
 -------------------------------------------------------------------
 Cartesian Forces:  Max     0.011837610 RMS     0.004669645

 GradGradGradGradGradGradGradGradGradGradGradGradGradGradGradGradGradGrad
 Berny optimization.
 Using GEDIIS/GDIIS optimizer.
 Internal  Forces:  Max     0.013417684 RMS     0.005699223
 Search for a local minimum.
 Step number   4 out of a maximum of   31
 All quantities printed in internal units (Hartrees-Bohrs-Radians)
 Mixed Optimization -- RFO/linear search
 Update second derivatives using D2CorX and points    2    3    4
 DE= -1.24D-02 DEPred=-1.80D-02 R= 6.85D-01
 SS=  1.41D+00  RLast= 2.27D-01 DXNew= 5.0454D-01 6.8111D-01
 Trust test= 6.85D-01 RLast= 2.27D-01 DXMaxT set to 5.05D-01
 Use linear search instead of GDIIS.
     Eigenvalues ---    0.00375   0.00486   0.00771   0.01126   0.02833
     Eigenvalues ---    0.05725   0.10621   0.11890   0.16118   0.20480
     Eigenvalues ---    0.28143   5.835331000.000001000.000001000.00000
     Eigenvalues --- 1000.000001000.000001000.000001000.000001000.00000
     Eigenvalues --- 1000.00000
 RFO step:  Lambda=-4.61431851D-03 EMin= 3.75421256D-03
 Quartic linear search produced a step of  0.07547.
 Iteration  1 RMS(Cart)=  0.09500419 RMS(Int)=  0.01458564
 Iteration  2 RMS(Cart)=  0.01342637 RMS(Int)=  0.00468427
 Iteration  3 RMS(Cart)=  0.00017121 RMS(Int)=  0.00468153
 Iteration  4 RMS(Cart)=  0.00000597 RMS(Int)=  0.00468153
 Iteration  5 RMS(Cart)=  0.00000015 RMS(Int)=  0.00468153
 Variable       Old X    -DE/DX   Delta X   Delta X   Delta X     New X
                                 (Linear)    (Quad)   (Total)
    R1        4.75360  -0.00302  -0.00053  -0.03365  -0.03419   4.71941
    R2        8.42709   0.00126   0.00141   0.01510   0.01650   8.44359
    R3        4.69928  -0.01227  -0.01201  -0.21829  -0.23030   4.46898
    R4        9.48436  -0.00282   0.00046  -0.12380  -0.12334   9.36102
    R5        2.92700   0.00607   0.00450   0.05150   0.05600   2.98300
    A1        1.97743   0.00192  -0.00211  -0.01845  -0.01907   1.95837
    A2        2.90191  -0.00159   0.00402   0.05511   0.05825   2.96015
    A3        2.14260  -0.00525  -0.00105  -0.05333  -0.05125   2.09135
    A4        0.91275   0.00179   0.00045   0.01968   0.02438   0.93713
    A5        0.92649  -0.00349   0.00618   0.06581   0.07646   1.00294
    A6        0.45387  -0.01342   0.00274  -0.00240  -0.00146   0.45241
    A7        1.06557   0.00031  -0.00260  -0.03421  -0.03533   1.03023
    A8        0.80909   0.00182   0.00493   0.06028   0.07384   0.88293
    A9        1.32424  -0.00954  -0.00082  -0.03051  -0.02880   1.29545
    D1       -0.13980  -0.00039  -0.00234   0.25642   0.25862   0.11882
    D2        1.32184   0.00100   0.00022   0.07128   0.06495   1.38679
    D3       -3.09317   0.00486  -0.00077   0.10739   0.10685  -2.98632
    D4        2.95457   0.00286   0.00250   0.11266   0.10147   3.05604
    D5       -2.69021  -0.00479   0.00178   0.10682   0.10546  -2.58475
    D6        1.63273   0.00186   0.00228   0.04138   0.03652   1.66925
    D7        0.40297  -0.00965   0.00254  -0.00057  -0.00140   0.40157
         Item               Value     Threshold  Converged?
 Maximum Force            0.013418     0.000450     NO 
 RMS     Force            0.005699     0.000300     NO 
 Maximum Displacement     0.236884     0.001800     NO 
 RMS     Displacement     0.105850     0.001200     NO 
 Predicted change in Energy=-2.599689D-03
 GradGradGradGradGradGradGradGradGradGradGradGradGradGradGradGradGradGrad

                          Input orientation:                          
 ---------------------------------------------------------------------
 Center     Atomic      Atomic             Coordinates (Angstroms)
 Number     Number       Type             X           Y           Z
 ---------------------------------------------------------------------
      1         79           0        0.312902    1.809879   -0.923708
      2         17           0       -0.125468    1.947565   -3.378478
      3         17           0       -1.456374   -1.863361    0.904244
      4         17           0        0.470272    1.337420    1.388149
      5         17           0       -2.847852   -0.626907    2.010612
      6          1           0       -0.325249    0.681115   -1.823949
 ---------------------------------------------------------------------
                    Distance matrix (angstroms):
                    1          2          3          4          5
     1  Au   0.000000
     2  Cl   2.497403   0.000000
     3  Cl   4.468157   5.885250   0.000000
     4  Cl   2.364881   4.842304   3.767111   0.000000
     5  Cl   4.953637   6.563655   2.165428   3.905891   0.000000
     6  H    1.578537   2.015035   3.898313   3.373598   4.772663
                    6
     6  H    0.000000
 Stoichiometry    AuCl4H
 Framework group  C1[X(AuCl4H)]
 Deg. of freedom    12
 Full point group                 C1      NOp   1
 Largest Abelian subgroup         C1      NOp   1
 Largest concise Abelian subgroup C1      NOp   1
                         Standard orientation:                         
 ---------------------------------------------------------------------
 Center     Atomic      Atomic             Coordinates (Angstroms)
 Number     Number       Type             X           Y           Z
 ---------------------------------------------------------------------
      1         79           0       -1.059889    0.272995    0.007329
      2         17           0       -2.621243   -1.668052    0.184902
      3         17           0        3.108998   -0.997780   -0.977525
      4         17           0        0.723135    1.812392   -0.201823
      5         17           0        3.757683   -0.343091    0.981982
      6          1           0       -0.734480   -1.225569   -0.367094
 ---------------------------------------------------------------------
 Rotational constants (GHZ):      1.5007370      0.3666575      0.3208151
 Standard basis: LANL2DZ (5D, 7F)
 There are    56 symmetry adapted basis functions of A   symmetry.
 Integral buffers will be    262144 words long.
 Raffenetti 2 integral format.
 Two-electron integral symmetry is turned on.
    56 basis functions,    95 primitive gaussians,    58 cartesian basis functions
    24 alpha electrons       24 beta electrons
       nuclear repulsion energy       138.1411184964 Hartrees.
 NAtoms=    6 NActive=    6 NUniq=    6 SFac= 7.50D-01 NAtFMM=   80 NAOKFM=F Big=F
 ------------------------------------------------------------------------------
 Polarizable Continuum Model (PCM)
 =================================
 Model                : PCM.
 Atomic radii         : SMD-Coulomb.
 Polarization charges : Total charges.
 Charge compensation  : None.
 Solution method      : Matrix inversion.
 Cavity type          : VdW (van der Waals Surface) (Alpha=1.000).
 Cavity algorithm     : GePol (No added spheres)
                        Default sphere list used, NSphG=    6.
                        Lebedev-Laikov grids with approx.  5.0 points / Ang**2.
                        Smoothing algorithm: Karplus/York (Gamma=1.0000).
                        Polarization charges: spherical gaussians, with
                                              point-specific exponents (IZeta= 3).
                        Self-potential: point-specific (ISelfS= 7).
                        Self-field    : sphere-specific E.n sum rule (ISelfD= 2).
 1st derivatives      : Analytical E(r).r(x)/FMM algorithm (CHGder, D1EAlg=3).
                        Cavity 1st derivative terms included.
 Solvent              : Water, Eps=  78.355300 Eps(inf)=   1.777849
 ------------------------------------------------------------------------------
 Spheres list:
 ISph  on   Nord    Re0     Alpha      Xe            Ye            Ze
    1  Au      1    1.660   1.000     -1.059889      0.272995      0.007329
    2  Cl      2    2.380   1.000     -2.621243     -1.668052      0.184902
    3  Cl      3    2.380   1.000      3.108998     -0.997780     -0.977525
    4  Cl      4    2.380   1.000      0.723135      1.812392     -0.201823
    5  Cl      5    2.380   1.000      3.757683     -0.343091      0.981982
    6   H      6    1.200   1.000     -0.734480     -1.225569     -0.367094
 ------------------------------------------------------------------------------
 ------------------------------------------------------------------------------
 Atomic radii for non-electrostatic terms: SMD-CDS.
 ------------------------------------------------------------------------------
 Nuclear repulsion after PCM non-electrostatic terms =      138.1446834072 Hartrees.
 One-electron integrals computed using PRISM.
   1 Symmetry operations used in ECPInt.
 ECPInt:  NShTT=     351 NPrTT=    1012 LenC2=     352 LenP2D=     943.
 LDataN:  DoStor=T MaxTD1= 6 Len=  172
 NBasis=    56 RedAO= T  NBF=    56
 NBsUse=    56 1.00D-06 NBFU=    56
 Defaulting to unpruned grid for atomic number  79.
 Initial guess read from the read-write file.
 B after Tr=     0.000000    0.000000    0.000000
         Rot=    1.000000    0.000000    0.000000    0.000000 Ang=   0.00 deg.
 Initial guess orbital symmetries:
       Occupied  (A) (A) (A) (A) (A) (A) (A) (A) (A) (A) (A) (A)
                 (A) (A) (A) (A) (A) (A) (A) (A) (A) (A) (A) (A)
       Virtual   (A) (A) (A) (A) (A) (A) (A) (A) (A) (A) (A) (A)
                 (A) (A) (A) (A) (A) (A) (A) (A) (A) (A) (A) (A)
                 (A) (A) (A) (A) (A) (A) (A) (A)
 Harris functional with IExCor= 1009 diagonalized for initial guess.
 ExpMin= 2.79D-02 ExpMax= 1.92D+01 ExpMxC= 1.92D+01 IAcc=3 IRadAn=         0 AccDes= 0.00D+00
 HarFok:  IExCor= 1009 AccDes= 0.00D+00 IRadAn=         0 IDoV= 1
 ScaDFX=  1.000000  1.000000  1.000000  1.000000
 Defaulting to unpruned grid for atomic number  79.
 Defaulting to unpruned grid for atomic number  79.
 Defaulting to unpruned grid for atomic number  79.
 Defaulting to unpruned grid for atomic number  79.
 FoFCou: FMM=F IPFlag=           0 FMFlag=      100000 FMFlg1=           0
         NFxFlg=           0 DoJE=T BraDBF=F KetDBF=T FulRan=T
         Omega=  0.000000  0.000000  1.000000  0.000000  0.000000 ICntrl=     500 IOpCl=  0
         NMat0=    1 NMatS0=    1 NMatT0=    0 NMatD0=    1 NMtDS0=    0 NMtDT0=    0
         I1Cent=           4 NGrid=           0.
 Petite list used in FoFCou.
 Requested convergence on RMS density matrix=1.00D-08 within 128 cycles.
 Requested convergence on MAX density matrix=1.00D-06.
 Requested convergence on             energy=1.00D-06.
 No special actions if energy rises.
 Keep R1 ints in memory in canonical form, NReq=6728668.
 Defaulting to unpruned grid for atomic number  79.
 Defaulting to unpruned grid for atomic number  79.
 Defaulting to unpruned grid for atomic number  79.
 Defaulting to unpruned grid for atomic number  79.
 Error on total polarization charges =  0.01326
 SCF Done:  E(RM062X) =  -195.473295088     A.U. after   16 cycles
             Convg  =    0.1645D-08             -V/T =  3.9658
 SMD-CDS (non-electrostatic) energy             (kcal/mol) =       2.24
 (included in total energy above)
   1 Symmetry operations used in ECPInt.
 ECPInt:  NShTT=     351 NPrTT=    1012 LenC2=     352 LenP2D=     943.
 LDataN:  DoStor=T MaxTD1= 7 Len=  274
 D1PCM: PCM CHGder 1st derivatives, ID1Alg=3 FixD1E=F DoIter=F DoCFld=F I1PDM=0.
 Calling FoFJK, ICntrl=      2127 FMM=F ISym2X=0 I1Cent= 0 IOpClX= 0 NMat=1 NMatS=1 NMatT=0.
 Defaulting to unpruned grid for atomic number  79.
 Defaulting to unpruned grid for atomic number  79.
 Defaulting to unpruned grid for atomic number  79.
 Defaulting to unpruned grid for atomic number  79.
 ***** Axes restored to original set *****
 -------------------------------------------------------------------
 Center     Atomic                   Forces (Hartrees/Bohr)
 Number     Number              X              Y              Z
 -------------------------------------------------------------------
      1       79          -0.000994447    0.004433698   -0.014506393
      2       17           0.000706061   -0.000443476    0.002306208
      3       17           0.004849465   -0.003991501   -0.004060775
      4       17          -0.000417717   -0.004436907    0.009947316
      5       17          -0.004280061    0.004502237    0.003543115
      6        1           0.000136700   -0.000064051    0.002770529
 -------------------------------------------------------------------
 Cartesian Forces:  Max     0.014506393 RMS     0.005113632

 GradGradGradGradGradGradGradGradGradGradGradGradGradGradGradGradGradGrad
 Berny optimization.
 Using GEDIIS/GDIIS optimizer.
 Internal  Forces:  Max     0.026372037 RMS     0.009367519
 Search for a local minimum.
 Step number   5 out of a maximum of   31
 All quantities printed in internal units (Hartrees-Bohrs-Radians)
 Mixed Optimization -- RFO/linear search
 Update second derivatives using D2CorX and points    3    4    5
 DE= -6.86D-04 DEPred=-2.60D-03 R= 2.64D-01
 Trust test= 2.64D-01 RLast= 4.45D-01 DXMaxT set to 5.05D-01
 Use linear search instead of GDIIS.
     Eigenvalues ---    0.00414   0.00494   0.00905   0.01171   0.03264
     Eigenvalues ---    0.07511   0.10208   0.12173   0.16089   0.21443
     Eigenvalues ---    0.27441   4.850421000.000001000.000001000.00000
     Eigenvalues --- 1000.000001000.000001000.000001000.000001000.00000
     Eigenvalues --- 1000.00000
 RFO step:  Lambda=-1.13028904D-03 EMin= 4.13665718D-03
 Quartic linear search produced a step of -0.39350.
 Iteration  1 RMS(Cart)=  0.08387793 RMS(Int)=  0.00820386
 Iteration  2 RMS(Cart)=  0.00434278 RMS(Int)=  0.00124812
 Iteration  3 RMS(Cart)=  0.00005835 RMS(Int)=  0.00124717
 Iteration  4 RMS(Cart)=  0.00000031 RMS(Int)=  0.00124717
 Variable       Old X    -DE/DX   Delta X   Delta X   Delta X     New X
                                 (Linear)    (Quad)   (Total)
    R1        4.71941  -0.00231   0.01345  -0.03068  -0.01723   4.70218
    R2        8.44359  -0.00031  -0.00649   0.07723   0.07073   8.51433
    R3        4.46898   0.01049   0.09062  -0.02523   0.06540   4.53437
    R4        9.36102   0.00260   0.04854  -0.25243  -0.20390   9.15712
    R5        2.98300  -0.00151  -0.02204   0.01114  -0.01089   2.97211
    A1        1.95837  -0.00494   0.00750  -0.00853  -0.00168   1.95669
    A2        2.96015  -0.00178  -0.02292  -0.02763  -0.04941   2.91074
    A3        2.09135   0.00757   0.02017   0.00067   0.02158   2.11293
    A4        0.93713   0.00419  -0.00959   0.04001   0.03034   0.96747
    A5        1.00294   0.00319  -0.03009  -0.01972  -0.04884   0.95411
    A6        0.45241   0.02637   0.00057   0.02302   0.02444   0.47685
    A7        1.03023  -0.01005   0.01390  -0.03722  -0.02427   1.00597
    A8        0.88293  -0.00725  -0.02905  -0.02131  -0.04884   0.83409
    A9        1.29545   0.01111   0.01133   0.01318   0.02517   1.32062
    D1        0.11882   0.00115  -0.10177  -0.04028  -0.14091  -0.02209
    D2        1.38679  -0.00346  -0.02556  -0.00042  -0.02617   1.36062
    D3       -2.98632  -0.00750  -0.04205   0.09747   0.05600  -2.93032
    D4        3.05604  -0.00702  -0.03993  -0.02780  -0.06997   2.98607
    D5       -2.58475   0.01164  -0.04150   0.09150   0.04765  -2.53711
    D6        1.66925  -0.00356  -0.01437  -0.02737  -0.04380   1.62545
    D7        0.40157   0.01914   0.00055  -0.00597  -0.00835   0.39322
         Item               Value     Threshold  Converged?
 Maximum Force            0.026372     0.000450     NO 
 RMS     Force            0.009368     0.000300     NO 
 Maximum Displacement     0.205742     0.001800     NO 
 RMS     Displacement     0.083104     0.001200     NO 
 Predicted change in Energy=-1.323419D-03
 GradGradGradGradGradGradGradGradGradGradGradGradGradGradGradGradGradGrad

                          Input orientation:                          
 ---------------------------------------------------------------------
 Center     Atomic      Atomic             Coordinates (Angstroms)
 Number     Number       Type             X           Y           Z
 ---------------------------------------------------------------------
      1         79           0        0.263520    1.846861   -0.928581
      2         17           0       -0.141611    1.962115   -3.380958
      3         17           0       -1.432541   -1.907504    0.895821
      4         17           0        0.393744    1.250270    1.391906
      5         17           0       -2.786993   -0.518033    2.001067
      6          1           0       -0.267887    0.652002   -1.802383
 ---------------------------------------------------------------------
                    Distance matrix (angstroms):
                    1          2          3          4          5
     1  Au   0.000000
     2  Cl   2.488286   0.000000
     3  Cl   4.505589   5.910270   0.000000
     4  Cl   2.399487   4.855261   3.681434   0.000000
     5  Cl   4.845740   6.489636   2.233101   3.689860   0.000000
     6  H    1.572772   2.055296   3.897152   3.316499   4.709683
                    6
     6  H    0.000000
 Stoichiometry    AuCl4H
 Framework group  C1[X(AuCl4H)]
 Deg. of freedom    12
 Full point group                 C1      NOp   1
 Largest Abelian subgroup         C1      NOp   1
 Largest concise Abelian subgroup C1      NOp   1
                         Standard orientation:                         
 ---------------------------------------------------------------------
 Center     Atomic      Atomic             Coordinates (Angstroms)
 Number     Number       Type             X           Y           Z
 ---------------------------------------------------------------------
      1         79           0        1.057438   -0.285254    0.009169
      2         17           0        2.648327    1.619116    0.193601
      3         17           0       -3.121693    1.084927   -0.969501
      4         17           0       -0.840778   -1.722913   -0.286551
      5         17           0       -3.643121    0.274373    1.044911
      6          1           0        0.735923    1.191481   -0.426143
 ---------------------------------------------------------------------
 Rotational constants (GHZ):      1.5236432      0.3695868      0.3264188
 Standard basis: LANL2DZ (5D, 7F)
 There are    56 symmetry adapted basis functions of A   symmetry.
 Integral buffers will be    262144 words long.
 Raffenetti 2 integral format.
 Two-electron integral symmetry is turned on.
    56 basis functions,    95 primitive gaussians,    58 cartesian basis functions
    24 alpha electrons       24 beta electrons
       nuclear repulsion energy       138.2156592749 Hartrees.
 NAtoms=    6 NActive=    6 NUniq=    6 SFac= 7.50D-01 NAtFMM=   80 NAOKFM=F Big=F
 ------------------------------------------------------------------------------
 Polarizable Continuum Model (PCM)
 =================================
 Model                : PCM.
 Atomic radii         : SMD-Coulomb.
 Polarization charges : Total charges.
 Charge compensation  : None.
 Solution method      : Matrix inversion.
 Cavity type          : VdW (van der Waals Surface) (Alpha=1.000).
 Cavity algorithm     : GePol (No added spheres)
                        Default sphere list used, NSphG=    6.
                        Lebedev-Laikov grids with approx.  5.0 points / Ang**2.
                        Smoothing algorithm: Karplus/York (Gamma=1.0000).
                        Polarization charges: spherical gaussians, with
                                              point-specific exponents (IZeta= 3).
                        Self-potential: point-specific (ISelfS= 7).
                        Self-field    : sphere-specific E.n sum rule (ISelfD= 2).
 1st derivatives      : Analytical E(r).r(x)/FMM algorithm (CHGder, D1EAlg=3).
                        Cavity 1st derivative terms included.
 Solvent              : Water, Eps=  78.355300 Eps(inf)=   1.777849
 ------------------------------------------------------------------------------
 Spheres list:
 ISph  on   Nord    Re0     Alpha      Xe            Ye            Ze
    1  Au      1    1.660   1.000      1.057438     -0.285254      0.009169
    2  Cl      2    2.380   1.000      2.648327      1.619116      0.193601
    3  Cl      3    2.380   1.000     -3.121693      1.084927     -0.969501
    4  Cl      4    2.380   1.000     -0.840778     -1.722913     -0.286551
    5  Cl      5    2.380   1.000     -3.643121      0.274373      1.044911
    6   H      6    1.200   1.000      0.735923      1.191481     -0.426143
 ------------------------------------------------------------------------------
 ------------------------------------------------------------------------------
 Atomic radii for non-electrostatic terms: SMD-CDS.
 ------------------------------------------------------------------------------
 Nuclear repulsion after PCM non-electrostatic terms =      138.2192159548 Hartrees.
 One-electron integrals computed using PRISM.
   1 Symmetry operations used in ECPInt.
 ECPInt:  NShTT=     351 NPrTT=    1012 LenC2=     352 LenP2D=     945.
 LDataN:  DoStor=T MaxTD1= 6 Len=  172
 NBasis=    56 RedAO= T  NBF=    56
 NBsUse=    56 1.00D-06 NBFU=    56
 Defaulting to unpruned grid for atomic number  79.
 Initial guess read from the read-write file.
 B after Tr=     0.000000    0.000000    0.000000
         Rot=    1.000000    0.000000    0.000000    0.000000 Ang=   0.00 deg.
 Initial guess orbital symmetries:
       Occupied  (A) (A) (A) (A) (A) (A) (A) (A) (A) (A) (A) (A)
                 (A) (A) (A) (A) (A) (A) (A) (A) (A) (A) (A) (A)
       Virtual   (A) (A) (A) (A) (A) (A) (A) (A) (A) (A) (A) (A)
                 (A) (A) (A) (A) (A) (A) (A) (A) (A) (A) (A) (A)
                 (A) (A) (A) (A) (A) (A) (A) (A)
 Harris functional with IExCor= 1009 diagonalized for initial guess.
 ExpMin= 2.79D-02 ExpMax= 1.92D+01 ExpMxC= 1.92D+01 IAcc=3 IRadAn=         0 AccDes= 0.00D+00
 HarFok:  IExCor= 1009 AccDes= 0.00D+00 IRadAn=         0 IDoV= 1
 ScaDFX=  1.000000  1.000000  1.000000  1.000000
 Defaulting to unpruned grid for atomic number  79.
 Defaulting to unpruned grid for atomic number  79.
 Defaulting to unpruned grid for atomic number  79.
 Defaulting to unpruned grid for atomic number  79.
 FoFCou: FMM=F IPFlag=           0 FMFlag=      100000 FMFlg1=           0
         NFxFlg=           0 DoJE=T BraDBF=F KetDBF=T FulRan=T
         Omega=  0.000000  0.000000  1.000000  0.000000  0.000000 ICntrl=     500 IOpCl=  0
         NMat0=    1 NMatS0=    1 NMatT0=    0 NMatD0=    1 NMtDS0=    0 NMtDT0=    0
         I1Cent=           4 NGrid=           0.
 Petite list used in FoFCou.
 Requested convergence on RMS density matrix=1.00D-08 within 128 cycles.
 Requested convergence on MAX density matrix=1.00D-06.
 Requested convergence on             energy=1.00D-06.
 No special actions if energy rises.
 Keep R1 ints in memory in canonical form, NReq=6643986.
 Defaulting to unpruned grid for atomic number  79.
 Defaulting to unpruned grid for atomic number  79.
 Defaulting to unpruned grid for atomic number  79.
 Defaulting to unpruned grid for atomic number  79.
 Error on total polarization charges =  0.01334
 SCF Done:  E(RM062X) =  -195.474065821     A.U. after   16 cycles
             Convg  =    0.3449D-08             -V/T =  3.9686
 SMD-CDS (non-electrostatic) energy             (kcal/mol) =       2.23
 (included in total energy above)
   1 Symmetry operations used in ECPInt.
 ECPInt:  NShTT=     351 NPrTT=    1012 LenC2=     352 LenP2D=     945.
 LDataN:  DoStor=T MaxTD1= 7 Len=  274
[...]
 ---------------------------------------------------------------------
 Center     Atomic      Atomic             Coordinates (Angstroms)
 Number     Number       Type             X           Y           Z
 ---------------------------------------------------------------------
      1         79           0       -0.862887    0.247393    0.028741
      2         17           0       -2.303031   -1.681045    0.130289
      3         17           0        2.574551   -1.109875   -0.997243
      4         17           0        0.638714    2.116038   -0.234729
      5         17           0        3.092054   -0.442903    1.015104
      6          1           0        0.129192   -0.541681   -0.798734
 ---------------------------------------------------------------------
 Rotational constants (GHZ):      1.2909076      0.5135543      0.4117736
 Standard basis: LANL2DZ (5D, 7F)
 There are    56 symmetry adapted basis functions of A   symmetry.
 Integral buffers will be    262144 words long.
 Raffenetti 2 integral format.
 Two-electron integral symmetry is turned on.
    56 basis functions,    95 primitive gaussians,    58 cartesian basis functions
    24 alpha electrons       24 beta electrons
       nuclear repulsion energy       146.2855047096 Hartrees.
 NAtoms=    6 NActive=    6 NUniq=    6 SFac= 7.50D-01 NAtFMM=   80 NAOKFM=F Big=F
 ------------------------------------------------------------------------------
 Polarizable Continuum Model (PCM)
 =================================
 Model                : PCM.
 Atomic radii         : SMD-Coulomb.
 Polarization charges : Total charges.
 Charge compensation  : None.
 Solution method      : Matrix inversion.
 Cavity type          : VdW (van der Waals Surface) (Alpha=1.000).
 Cavity algorithm     : GePol (No added spheres)
                        Default sphere list used, NSphG=    6.
                        Lebedev-Laikov grids with approx.  5.0 points / Ang**2.
                        Smoothing algorithm: Karplus/York (Gamma=1.0000).
                        Polarization charges: spherical gaussians, with
                                              point-specific exponents (IZeta= 3).
                        Self-potential: point-specific (ISelfS= 7).
                        Self-field    : sphere-specific E.n sum rule (ISelfD= 2).
 1st derivatives      : Analytical E(r).r(x)/FMM algorithm (CHGder, D1EAlg=3).
                        Cavity 1st derivative terms included.
 Solvent              : Water, Eps=  78.355300 Eps(inf)=   1.777849
 ------------------------------------------------------------------------------
 Spheres list:
 ISph  on   Nord    Re0     Alpha      Xe            Ye            Ze
    1  Au      1    1.660   1.000     -0.862887      0.247393      0.028741
    2  Cl      2    2.380   1.000     -2.303031     -1.681045      0.130289
    3  Cl      3    2.380   1.000      2.574551     -1.109875     -0.997243
    4  Cl      4    2.380   1.000      0.638714      2.116038     -0.234729
    5  Cl      5    2.380   1.000      3.092054     -0.442903      1.015104
    6   H      6    1.200   1.000      0.129192     -0.541681     -0.798734
 ------------------------------------------------------------------------------
 ------------------------------------------------------------------------------
 Atomic radii for non-electrostatic terms: SMD-CDS.
 ------------------------------------------------------------------------------
 Nuclear repulsion after PCM non-electrostatic terms =      146.2886934975 Hartrees.
 One-electron integrals computed using PRISM.
   1 Symmetry operations used in ECPInt.
 ECPInt:  NShTT=     351 NPrTT=    1012 LenC2=     352 LenP2D=     963.
 LDataN:  DoStor=T MaxTD1= 6 Len=  172
 NBasis=    56 RedAO= T  NBF=    56
 NBsUse=    56 1.00D-06 NBFU=    56
 Defaulting to unpruned grid for atomic number  79.
 Initial guess read from the read-write file.
 B after Tr=     0.000000    0.000000    0.000000
         Rot=    1.000000    0.000000    0.000000    0.000000 Ang=   0.00 deg.
 Initial guess orbital symmetries:
       Occupied  (A) (A) (A) (A) (A) (A) (A) (A) (A) (A) (A) (A)
                 (A) (A) (A) (A) (A) (A) (A) (A) (A) (A) (A) (A)
       Virtual   (A) (A) (A) (A) (A) (A) (A) (A) (A) (A) (A) (A)
                 (A) (A) (A) (A) (A) (A) (A) (A) (A) (A) (A) (A)
                 (A) (A) (A) (A) (A) (A) (A) (A)
 Harris functional with IExCor= 1009 diagonalized for initial guess.
 ExpMin= 2.79D-02 ExpMax= 1.92D+01 ExpMxC= 1.92D+01 IAcc=3 IRadAn=         0 AccDes= 0.00D+00
 HarFok:  IExCor= 1009 AccDes= 0.00D+00 IRadAn=         0 IDoV= 1
 ScaDFX=  1.000000  1.000000  1.000000  1.000000
 Defaulting to unpruned grid for atomic number  79.
 Defaulting to unpruned grid for atomic number  79.
 Defaulting to unpruned grid for atomic number  79.
 Defaulting to unpruned grid for atomic number  79.
 FoFCou: FMM=F IPFlag=           0 FMFlag=      100000 FMFlg1=           0
         NFxFlg=           0 DoJE=T BraDBF=F KetDBF=T FulRan=T
         Omega=  0.000000  0.000000  1.000000  0.000000  0.000000 ICntrl=     500 IOpCl=  0
         NMat0=    1 NMatS0=    1 NMatT0=    0 NMatD0=    1 NMtDS0=    0 NMtDT0=    0
         I1Cent=           4 NGrid=           0.
 Petite list used in FoFCou.
 Requested convergence on RMS density matrix=1.00D-08 within 128 cycles.
 Requested convergence on MAX density matrix=1.00D-06.
 Requested convergence on             energy=1.00D-06.
 No special actions if energy rises.
 Keep R1 ints in memory in canonical form, NReq=6591561.
 Defaulting to unpruned grid for atomic number  79.
 Defaulting to unpruned grid for atomic number  79.
 Defaulting to unpruned grid for atomic number  79.
 Defaulting to unpruned grid for atomic number  79.
 Error on total polarization charges =  0.01051
 SCF Done:  E(RM062X) =  -195.483833068     A.U. after   11 cycles
             Convg  =    0.6344D-08             -V/T =  3.9713
 SMD-CDS (non-electrostatic) energy             (kcal/mol) =       2.00
 (included in total energy above)
   1 Symmetry operations used in ECPInt.
 ECPInt:  NShTT=     351 NPrTT=    1012 LenC2=     352 LenP2D=     963.
 LDataN:  DoStor=T MaxTD1= 7 Len=  274
 D1PCM: PCM CHGder 1st derivatives, ID1Alg=3 FixD1E=F DoIter=F DoCFld=F I1PDM=0.
 Calling FoFJK, ICntrl=      2127 FMM=F ISym2X=0 I1Cent= 0 IOpClX= 0 NMat=1 NMatS=1 NMatT=0.
 Defaulting to unpruned grid for atomic number  79.
 Defaulting to unpruned grid for atomic number  79.
 Defaulting to unpruned grid for atomic number  79.
 Defaulting to unpruned grid for atomic number  79.
 ***** Axes restored to original set *****
 -------------------------------------------------------------------
 Center     Atomic                   Forces (Hartrees/Bohr)
 Number     Number              X              Y              Z
 -------------------------------------------------------------------
      1       79           0.001897206   -0.001550047    0.000805589
      2       17          -0.000887233   -0.000140175   -0.000247444
      3       17           0.001851573   -0.001326554   -0.001446622
      4       17          -0.000810060    0.000042478    0.000074126
      5       17          -0.001418230    0.001091488    0.001049858
      6        1          -0.000633256    0.001882810   -0.000235507
 -------------------------------------------------------------------
 Cartesian Forces:  Max     0.001897206 RMS     0.001149148

 GradGradGradGradGradGradGradGradGradGradGradGradGradGradGradGradGradGrad
 Berny optimization.
 Using GEDIIS/GDIIS optimizer.
 Internal  Forces:  Max     0.009707847 RMS     0.002805303
 Search for a local minimum.
 Step number  31 out of a maximum of   31
 All quantities printed in internal units (Hartrees-Bohrs-Radians)
 Mixed Optimization -- RFO/linear search
 Update second derivatives using D2CorX and points   21   23   25   26   28
                                                     27   29   30   31
 DE= -1.02D-04 DEPred=-6.40D-05 R= 1.60D+00
 SS=  1.41D+00  RLast= 1.84D-01 DXNew= 3.0000D-01 5.5176D-01
 Trust test= 1.60D+00 RLast= 1.84D-01 DXMaxT set to 3.00D-01
 Use linear search instead of GDIIS.
     Eigenvalues ---    0.00301   0.01073   0.01427   0.02186   0.05196
     Eigenvalues ---    0.07170   0.12292   0.13810   0.16022   0.27006
     Eigenvalues ---    0.44341  13.795901000.000001000.000001000.00000
     Eigenvalues --- 1000.000001000.000001000.000001000.000001000.00000
     Eigenvalues --- 1000.00000
 RFO step:  Lambda=-5.17223207D-05 EMin= 3.00592927D-03
 Quartic linear search produced a step of  0.00761.
 Iteration  1 RMS(Cart)=  0.01085989 RMS(Int)=  0.00013751
 Iteration  2 RMS(Cart)=  0.00006604 RMS(Int)=  0.00001363
 Iteration  3 RMS(Cart)=  0.00000001 RMS(Int)=  0.00001363
 Variable       Old X    -DE/DX   Delta X   Delta X   Delta X     New X
                                 (Linear)    (Quad)   (Total)
    R1        4.55232   0.00051   0.00007   0.00423   0.00430   4.55662
    R2        7.24798   0.00002   0.00063  -0.01027  -0.00964   7.23834
    R3        4.55736  -0.00020   0.00000   0.00031   0.00031   4.55767
    R4        7.81236   0.00096   0.00095  -0.01857  -0.01762   7.79474
    R5        2.86066  -0.00168  -0.00003  -0.00975  -0.00978   2.85088
    A1        1.83773  -0.00238   0.00004  -0.00350  -0.00345   1.83428
    A2        3.06557   0.00018  -0.00009   0.00452   0.00442   3.06999
    A3        2.01328   0.00156   0.00014   0.00418   0.00433   2.01761
    A4        1.56835   0.00057  -0.00007   0.00025   0.00020   1.56855
    A5        1.25238   0.00249  -0.00014   0.00597   0.00586   1.25825
    A6        0.54977   0.00971  -0.00006   0.00220   0.00214   0.55191
    A7        0.40772  -0.00499   0.00009  -0.00693  -0.00683   0.40089
    A8        1.11496  -0.00082  -0.00020  -0.00420  -0.00437   1.11059
    A9        0.94768   0.00480   0.00003  -0.00398  -0.00395   0.94373
    D1       -0.83573   0.00031   0.00063   0.01124   0.01187  -0.82386
    D2        1.35454   0.00045  -0.00021  -0.01289  -0.01308   1.34146
    D3       -2.30622  -0.00088  -0.00017  -0.00227  -0.00245  -2.30867
    D4        3.05850   0.00001  -0.00010   0.00493   0.00484   3.06334
    D5       -2.12827   0.00060  -0.00023  -0.00706  -0.00733  -2.13559
    D6        1.70396  -0.00044   0.00011   0.01782   0.01792   1.72188
    D7        0.17795   0.00148  -0.00006  -0.00479  -0.00487   0.17308
         Item               Value     Threshold  Converged?
 Maximum Force            0.009708     0.000450     NO 
 RMS     Force            0.002805     0.000300     NO 
 Maximum Displacement     0.026950     0.001800     NO 
 RMS     Displacement     0.010890     0.001200     NO 
 Predicted change in Energy=-2.589075D-05
 Optimization stopped.
    -- Number of steps exceeded,  NStep=  31
    -- Flag reset to prevent archiving.
                           ----------------------------
                           ! Non-Optimized Parameters !
                           ! (Angstroms and Degrees)  !
 --------------------------                            --------------------------
 ! Name  Definition              Value          Derivative Info.                !
 --------------------------------------------------------------------------------
 ! R1    R(1,2)                  2.4113         -DE/DX =    0.0005              !
 ! R2    R(1,3)                  3.8304         -DE/DX =    0.0                 !
 ! R3    R(1,4)                  2.4118         -DE/DX =   -0.0002              !
 ! R4    R(1,5)                  4.1248         -DE/DX =    0.001               !
 ! R5    R(1,6)                  1.5086         -DE/DX =   -0.0017              !
 ! A1    A(2,1,3)              105.0966         -DE/DX =   -0.0024              !
 ! A2    A(2,1,4)              175.8973         -DE/DX =    0.0002              !
 ! A3    A(2,1,5)              115.6006         -DE/DX =    0.0016              !
 ! A4    A(2,1,6)               89.8712         -DE/DX =    0.0006              !
 ! A5    A(3,1,4)               72.0922         -DE/DX =    0.0025              !
 ! A6    A(3,1,5)               31.6223         -DE/DX =    0.0097              !
 ! A7    A(3,1,6)               22.9691         -DE/DX =   -0.005               !
 ! A8    A(4,1,5)               63.6321         -DE/DX =   -0.0008              !
 ! A9    A(5,1,6)               54.0717         -DE/DX =    0.0048              !
 ! D1    D(2,1,4,3)            -47.2036         -DE/DX =    0.0003              !
 ! D2    D(2,1,5,3)             76.86           -DE/DX =    0.0005              !
 ! D3    D(2,1,6,3)           -132.2771         -DE/DX =   -0.0009              !
 ! D4    D(2,1,5,4)            175.5162         -DE/DX =    0.0                 !
 ! D5    D(2,1,6,5)           -122.3605         -DE/DX =    0.0006              !
 ! D6    D(3,1,5,4)             98.6562         -DE/DX =   -0.0004              !
 ! D7    D(3,1,6,5)              9.9165         -DE/DX =    0.0015              !
 --------------------------------------------------------------------------------
 GradGradGradGradGradGradGradGradGradGradGradGradGradGradGradGradGradGrad

                          Input orientation:                          
 ---------------------------------------------------------------------
 Center     Atomic      Atomic             Coordinates (Angstroms)
 Number     Number       Type             X           Y           Z
 ---------------------------------------------------------------------
      1         79           0        0.064675    1.717897   -0.892398
      2         17           0       -0.517638    1.857653   -3.225760
      3         17           0       -1.377820   -1.625734    0.311821
      4         17           0        0.703483    1.406246    1.412131
      5         17           0       -2.646046   -0.297744    1.490910
      6          1           0       -0.198422    0.227393   -0.919833
 ---------------------------------------------------------------------
                    Distance matrix (angstroms):
                    1          2          3          4          5
     1  Au   0.000000
     2  Cl   2.408983   0.000000
     3  Cl   3.835466   5.038688   0.000000
     4  Cl   2.411650   4.817151   3.838672   0.000000
     5  Cl   4.134123   5.605608   2.182247   3.758874   0.000000
     6  H    1.513795   2.841997   2.518339   2.764269   3.475387
                    6
     6  H    0.000000
 Stoichiometry    AuCl4H
 Framework group  C1[X(AuCl4H)]
 Deg. of freedom    12
 Full point group                 C1      NOp   1
 Largest Abelian subgroup         C1      NOp   1
 Largest concise Abelian subgroup C1      NOp   1
                         Standard orientation:                         
 ---------------------------------------------------------------------
 Center     Atomic      Atomic             Coordinates (Angstroms)
 Number     Number       Type             X           Y           Z
 ---------------------------------------------------------------------
      1         79           0       -0.862887    0.247393    0.028741
      2         17           0       -2.303031   -1.681045    0.130289
      3         17           0        2.574551   -1.109875   -0.997243
      4         17           0        0.638714    2.116038   -0.234729
      5         17           0        3.092054   -0.442903    1.015104
      6          1           0        0.129192   -0.541681   -0.798734
 ---------------------------------------------------------------------
 Rotational constants (GHZ):      1.2909076      0.5135543      0.4117736

 **********************************************************************

            Population analysis using the SCF density.

 **********************************************************************

 Orbital symmetries:
       Occupied  (A) (A) (A) (A) (A) (A) (A) (A) (A) (A) (A) (A)
                 (A) (A) (A) (A) (A) (A) (A) (A) (A) (A) (A) (A)
       Virtual   (A) (A) (A) (A) (A) (A) (A) (A) (A) (A) (A) (A)
                 (A) (A) (A) (A) (A) (A) (A) (A) (A) (A) (A) (A)
                 (A) (A) (A) (A) (A) (A) (A) (A)
 The electronic state is 1-A.
 Alpha  occ. eigenvalues --   -4.43639  -2.55174  -2.54217  -2.51598  -0.99941
 Alpha  occ. eigenvalues --   -0.86334  -0.85632  -0.84323  -0.57176  -0.51393
 Alpha  occ. eigenvalues --   -0.50963  -0.50074  -0.48311  -0.47576  -0.46836
 Alpha  occ. eigenvalues --   -0.46748  -0.40378  -0.39244  -0.39075  -0.37875
 Alpha  occ. eigenvalues --   -0.36226  -0.36165  -0.34435  -0.34148
 Alpha virt. eigenvalues --   -0.15406  -0.09998  -0.00134   0.02284   0.04251
 Alpha virt. eigenvalues --    0.06988   0.12662   0.25698   0.25859   0.37386
 Alpha virt. eigenvalues --    0.39876   0.41718   0.46421   0.54959   0.64673
 Alpha virt. eigenvalues --    0.66404   0.69796   0.73415   0.75596   0.79490
 Alpha virt. eigenvalues --    0.79851   0.79977   0.80614   0.81734   0.84515
 Alpha virt. eigenvalues --    0.86689   1.11096   3.14228   4.88438   7.20287
 Alpha virt. eigenvalues --    8.05526   9.43884
          Condensed to atoms (all electrons):
              1          2          3          4          5          6
     1  Au  17.921406   0.253302  -0.008108   0.249286   0.005575   0.257894
     2  Cl   0.253302   7.031197  -0.000111  -0.001218  -0.000003   0.008453
     3  Cl  -0.008108  -0.000111   6.906486  -0.002312   0.094479  -0.001332
     4  Cl   0.249286  -0.001218  -0.002312   7.034737  -0.001924   0.007094
     5  Cl   0.005575  -0.000003   0.094479  -0.001924   6.877435  -0.002221
     6  H    0.257894   0.008453  -0.001332   0.007094  -0.002221   0.511033
 Mulliken atomic charges:
              1
     1  Au   0.320646
     2  Cl  -0.291619
     3  Cl   0.010898
     4  Cl  -0.285664
     5  Cl   0.026659
     6  H    0.219079
 Sum of Mulliken atomic charges =   0.00000
 Mulliken charges with hydrogens summed into heavy atoms:
              1
     1  Au   0.539725
     2  Cl  -0.291619
     3  Cl   0.010898
     4  Cl  -0.285664
     5  Cl   0.026659
 Sum of Mulliken charges with hydrogens summed into heavy atoms =   0.00000
 Electronic spatial extent (au):  <R**2>=           1049.7895
 Charge=              0.0000 electrons
 Dipole moment (field-independent basis, Debye):
    X=              0.4597    Y=              0.0667    Z=              0.3810  Tot=              0.6008
 Quadrupole moment (field-independent basis, Debye-Ang):
   XX=            -78.0946   YY=            -85.5659   ZZ=            -69.7305
   XY=            -12.3757   XZ=              0.2559   YZ=              3.1251
 Traceless Quadrupole moment (field-independent basis, Debye-Ang):
   XX=             -0.2976   YY=             -7.7689   ZZ=              8.0665
   XY=            -12.3757   XZ=              0.2559   YZ=              3.1251
 Octapole moment (field-independent basis, Debye-Ang**2):
  XXX=            -61.1180  YYY=             16.4682  ZZZ=              4.7340  XYY=            -21.4411
  XXY=             26.9258  XXZ=              5.8207  XZZ=            -22.5293  YZZ=              6.6017
  YYZ=              1.8977  XYZ=              0.3101
 Hexadecapole moment (field-independent basis, Debye-Ang**3):
 XXXX=          -1809.2221 YYYY=           -798.5799 ZZZZ=           -215.9981 XXXY=            -72.8287
 XXXZ=             14.1749 YYYX=            -58.7200 YYYZ=              9.6769 ZZZX=              3.9115
 ZZZY=             10.7785 XXYY=           -444.6572 XXZZ=           -318.4468 YYZZ=           -163.6852
 XXYZ=              6.8103 YYXZ=             -1.5434 ZZXY=            -15.9998
 N-N= 1.462886934975D+02 E-N=-6.922040798244D+02  KE= 6.579115178658D+01


  THE LARGE PRINT GIVETH,
  AND THE SMALL PRINT TAKETH AWAY.

                     -- TOM WAITES
 Error termination request processed by link 9999.
 Error termination via Lnk1e in C:\G09W\l9999.exe at Sun Jan 24 04:05:11 2021.
 Job cpu time:  0 days  0 hours  7 minutes  3.0 seconds.
 File lengths (MBytes):  RWF=     72 Int=      0 D2E=      0 Chk=      3 Scr=      1
