 Entering Link 1 = C:\G09W\l1.exe PID=      7628.
  
 Copyright (c) 1988,1990,1992,1993,1995,1998,2003,2009, Gaussian, Inc.
                  All Rights Reserved.
  
 This is part of the Gaussian(R) 09 program.  It is based on
 the Gaussian(R) 03 system (copyright 2003, Gaussian, Inc.),
 the Gaussian(R) 98 system (copyright 1998, Gaussian, Inc.),
 the Gaussian(R) 94 system (copyright 1995, Gaussian, Inc.),
 the Gaussian 92(TM) system (copyright 1992, Gaussian, Inc.),
 the Gaussian 90(TM) system (copyright 1990, Gaussian, Inc.),
 the Gaussian 88(TM) system (copyright 1988, Gaussian, Inc.),
 the Gaussian 86(TM) system (copyright 1986, Carnegie Mellon
 University), and the Gaussian 82(TM) system (copyright 1983,
 Carnegie Mellon University). Gaussian is a federally registered
 trademark of Gaussian, Inc.
  
 This software contains proprietary and confidential information,
 including trade secrets, belonging to Gaussian, Inc.
  
 This software is provided under written license and may be
 used, copied, transmitted, or stored only in accord with that
 written license.
  
 The following legend is applicable only to US Government
 contracts under FAR:
  
                    RESTRICTED RIGHTS LEGEND
  
 Use, reproduction and disclosure by the US Government is
 subject to restrictions as set forth in subparagraphs (a)
 and (c) of the Commercial Computer Software - Restricted
 Rights clause in FAR 52.227-19.
  
 Gaussian, Inc.
 340 Quinnipiac St., Bldg. 40, Wallingford CT 06492
  
  
 ---------------------------------------------------------------
 Warning -- This program may not be used in any manner that
 competes with the business of Gaussian, Inc. or will provide
 assistance to any competitor of Gaussian, Inc.  The licensee
 of this program is prohibited from giving any competitor of
 Gaussian, Inc. access to this program.  By using this program,
 the user acknowledges that Gaussian, Inc. is engaged in the
 business of creating and licensing software in the field of
 computational chemistry and represents and warrants to the
 licensee that it is not a competitor of Gaussian, Inc. and that
 it will not use this program in any manner prohibited above.
 ---------------------------------------------------------------
  

 Cite this work as:
 Gaussian 09, Revision A.02,
 M. J. Frisch, G. W. Trucks, H. B. Schlegel, G. E. Scuseria, 
 M. A. Robb, J. R. Cheeseman, G. Scalmani, V. Barone, B. Mennucci, 
 G. A. Petersson, H. Nakatsuji, M. Caricato, X. Li, H. P. Hratchian, 
 A. F. Izmaylov, J. Bloino, G. Zheng, J. L. Sonnenberg, M. Hada, 
 M. Ehara, K. Toyota, R. Fukuda, J. Hasegawa, M. Ishida, T. Nakajima, 
 Y. Honda, O. Kitao, H. Nakai, T. Vreven, J. A. Montgomery, Jr., 
 J. E. Peralta, F. Ogliaro, M. Bearpark, J. J. Heyd, E. Brothers, 
 K. N. Kudin, V. N. Staroverov, R. Kobayashi, J. Normand, 
 K. Raghavachari, A. Rendell, J. C. Burant, S. S. Iyengar, J. Tomasi, 
 M. Cossi, N. Rega, J. M. Millam, M. Klene, J. E. Knox, J. B. Cross, 
 V. Bakken, C. Adamo, J. Jaramillo, R. Gomperts, R. E. Stratmann, 
 O. Yazyev, A. J. Austin, R. Cammi, C. Pomelli, J. W. Ochterski, 
 R. L. Martin, K. Morokuma, V. G. Zakrzewski, G. A. Voth, 
 P. Salvador, J. J. Dannenberg, S. Dapprich, A. D. Daniels, 
 O. Farkas, J. B. Foresman, J. V. Ortiz, J. Cioslowski, 
 and D. J. Fox, Gaussian, Inc., Wallingford CT, 2009.
 
 ******************************************
 Gaussian 09:  IA32W-G09RevA.02 11-Jun-2009
                24-Jan-2021 
 ******************************************
 %chk=D:\Documents\rayGit\FQ\quimicaComputacional\proyecto\chloauricAcidPka\chloa
 uricAcid.chk
 %mem=1500MB
 %nprocshared=4
 Will use up to    4 processors via shared memory.
 --------------------------------------------------------
 # opt freq geom=check guess=check lanl2dz scrf=smd m062x
 --------------------------------------------------------
 1/14=-1,18=20,19=15,26=3,29=2,38=1/1,3;
 2/9=110,12=2,40=1/2;
 3/5=6,6=3,11=2,14=-4,16=1,25=1,30=1,70=32201,71=1,72=1,74=-55,116=-2/1,2,3;
 4/5=1/1;
 5/5=2,38=6/2;
 6/7=2,8=2,9=2,10=2,28=1/1;
 7//1,2,3,16;
 1/14=-1,18=20,19=15/3(2);
 2/9=110/2;
 99//99;
 2/9=110/2;
 3/5=6,6=3,11=2,14=-2,16=1,25=1,30=1,70=32205,71=1,74=-55/1,2,3;
 4/5=5,16=3/1;
 5/5=2,38=5/2;
 7//1,2,3,16;
 1/14=-1,18=20,19=15/3(-5);
 2/9=110/2;
 6/7=2,8=2,9=2,10=2,19=2,28=1/1;
 99/9=1/99;
 ----------------
 chloroauric acid
 ----------------
 Redundant internal coordinates taken from checkpoint file:
 D:\Documents\rayGit\FQ\quimicaComputacional\proyecto\chloauricAcidPka\chloauricAcid.chk
 Charge =  0 Multiplicity = 1
 Au,0,0.064674919,1.7178969476,-0.8923979347
 Cl,0,-0.5176382233,1.8576527935,-3.2257603311
 Cl,0,-1.3778203137,-1.6257336257,0.3118207502
 Cl,0,0.7034830118,1.4062455725,1.4121312404
 Cl,0,-2.6460460879,-0.2977444109,1.4909100167
 H,0,-0.1984222077,0.2273929538,-0.9198329712
 Recover connectivity data from disk.

 GradGradGradGradGradGradGradGradGradGradGradGradGradGradGradGradGradGrad
 Berny optimization.
 Initialization pass.
                           ----------------------------
                           !    Initial Parameters    !
                           ! (Angstroms and Degrees)  !
 --------------------------                            --------------------------
 ! Name  Definition              Value          Derivative Info.                !
 --------------------------------------------------------------------------------
 ! R1    R(1,2)                  2.409          estimate D2E/DX2                !
 ! R2    R(1,3)                  3.8355         estimate D2E/DX2                !
 ! R3    R(1,4)                  2.4117         estimate D2E/DX2                !
 ! R4    R(1,5)                  4.1341         estimate D2E/DX2                !
 ! R5    R(1,6)                  1.5138         estimate D2E/DX2                !
 ! A1    A(2,1,3)              105.2943         estimate D2E/DX2                !
 ! A2    A(2,1,4)              175.644          estimate D2E/DX2                !
 ! A3    A(2,1,5)              115.3526         estimate D2E/DX2                !
 ! A4    A(2,1,6)               89.8599         estimate D2E/DX2                !
 ! A5    A(3,1,4)               71.7564         estimate D2E/DX2                !
 ! A6    A(3,1,5)               31.4995         estimate D2E/DX2                !
 ! A7    A(3,1,6)               23.3605         estimate D2E/DX2                !
 ! A8    A(4,1,5)               63.8825         estimate D2E/DX2                !
 ! A9    A(5,1,6)               54.2978         estimate D2E/DX2                !
 ! D1    D(2,1,4,3)            -47.8838         estimate D2E/DX2                !
 ! D2    D(2,1,5,3)             77.6095         estimate D2E/DX2                !
 ! D3    D(2,1,6,3)           -132.1366         estimate D2E/DX2                !
 ! D4    D(2,1,5,4)            175.2392         estimate D2E/DX2                !
 ! D5    D(2,1,6,5)           -121.9408         estimate D2E/DX2                !
 ! D6    D(3,1,5,4)             97.6296         estimate D2E/DX2                !
 ! D7    D(3,1,6,5)             10.1958         estimate D2E/DX2                !
 --------------------------------------------------------------------------------
 Trust Radius=3.00D-01 FncErr=1.00D-07 GrdErr=1.00D-06
 Number of steps in this run=  31 maximum allowed number of steps= 100.
 GradGradGradGradGradGradGradGradGradGradGradGradGradGradGradGradGradGrad

                          Input orientation:                          
 ---------------------------------------------------------------------
 Center     Atomic      Atomic             Coordinates (Angstroms)
 Number     Number       Type             X           Y           Z
 ---------------------------------------------------------------------
      1         79           0        0.064675    1.717897   -0.892398
      2         17           0       -0.517638    1.857653   -3.225760
      3         17           0       -1.377820   -1.625734    0.311821
      4         17           0        0.703483    1.406246    1.412131
      5         17           0       -2.646046   -0.297744    1.490910
      6          1           0       -0.198422    0.227393   -0.919833
 ---------------------------------------------------------------------
                    Distance matrix (angstroms):
                    1          2          3          4          5
     1  Au   0.000000
     2  Cl   2.408983   0.000000
     3  Cl   3.835466   5.038688   0.000000
     4  Cl   2.411650   4.817151   3.838672   0.000000
     5  Cl   4.134123   5.605608   2.182247   3.758874   0.000000
     6  H    1.513795   2.841997   2.518339   2.764269   3.475387
                    6
     6  H    0.000000
 Stoichiometry    AuCl4H
 Framework group  C1[X(AuCl4H)]
 Deg. of freedom    12
 Full point group                 C1      NOp   1
 Largest Abelian subgroup         C1      NOp   1
 Largest concise Abelian subgroup C1      NOp   1
                         Standard orientation:                         
 ---------------------------------------------------------------------
 Center     Atomic      Atomic             Coordinates (Angstroms)
 Number     Number       Type             X           Y           Z
 ---------------------------------------------------------------------
      1         79           0       -0.862887    0.247393    0.028741
      2         17           0       -2.303031   -1.681045    0.130289
      3         17           0        2.574551   -1.109875   -0.997243
      4         17           0        0.638714    2.116038   -0.234729
      5         17           0        3.092054   -0.442903    1.015104
      6          1           0        0.129192   -0.541681   -0.798734
 ---------------------------------------------------------------------
 Rotational constants (GHZ):      1.2909076      0.5135543      0.4117736
 Standard basis: LANL2DZ (5D, 7F)
 There are    56 symmetry adapted basis functions of A   symmetry.
 Integral buffers will be    262144 words long.
 Raffenetti 2 integral format.
 Two-electron integral symmetry is turned on.
    56 basis functions,    95 primitive gaussians,    58 cartesian basis functions
    24 alpha electrons       24 beta electrons
       nuclear repulsion energy       146.2855047096 Hartrees.
 NAtoms=    6 NActive=    6 NUniq=    6 SFac= 7.50D-01 NAtFMM=   80 NAOKFM=F Big=F
 ------------------------------------------------------------------------------
 Polarizable Continuum Model (PCM)
 =================================
 Model                : PCM.
 Atomic radii         : SMD-Coulomb.
 Polarization charges : Total charges.
 Charge compensation  : None.
 Solution method      : Matrix inversion.
 Cavity type          : VdW (van der Waals Surface) (Alpha=1.000).
 Cavity algorithm     : GePol (No added spheres)
                        Default sphere list used, NSphG=    6.
                        Lebedev-Laikov grids with approx.  5.0 points / Ang**2.
                        Smoothing algorithm: Karplus/York (Gamma=1.0000).
                        Polarization charges: spherical gaussians, with
                                              point-specific exponents (IZeta= 3).
                        Self-potential: point-specific (ISelfS= 7).
                        Self-field    : sphere-specific E.n sum rule (ISelfD= 2).
 1st derivatives      : Analytical E(r).r(x)/FMM algorithm (CHGder, D1EAlg=3).
                        Cavity 1st derivative terms included.
 Solvent              : Water, Eps=  78.355300 Eps(inf)=   1.777849
 ------------------------------------------------------------------------------
 Spheres list:
 ISph  on   Nord    Re0     Alpha      Xe            Ye            Ze
    1  Au      1    1.660   1.000     -0.862887      0.247393      0.028741
    2  Cl      2    2.380   1.000     -2.303031     -1.681045      0.130289
    3  Cl      3    2.380   1.000      2.574551     -1.109875     -0.997243
    4  Cl      4    2.380   1.000      0.638714      2.116038     -0.234729
    5  Cl      5    2.380   1.000      3.092054     -0.442903      1.015104
    6   H      6    1.200   1.000      0.129192     -0.541681     -0.798734
 ------------------------------------------------------------------------------
 ------------------------------------------------------------------------------
 Atomic radii for non-electrostatic terms: SMD-CDS.
 ------------------------------------------------------------------------------
 Nuclear repulsion after PCM non-electrostatic terms =      146.2886934975 Hartrees.
 One-electron integrals computed using PRISM.
   1 Symmetry operations used in ECPInt.
 ECPInt:  NShTT=     351 NPrTT=    1012 LenC2=     352 LenP2D=     963.
 LDataN:  DoStor=T MaxTD1= 6 Len=  172
 NBasis=    56 RedAO= T  NBF=    56
 NBsUse=    56 1.00D-06 NBFU=    56
 Defaulting to unpruned grid for atomic number  79.
 Initial guess read from the checkpoint file:  D:\Documents\rayGit\FQ\quimicaComp
 utacional\proyecto\chloauricAcidPka\chloauricAcid.chk
 B after Tr=     0.000000    0.000000    0.000000
         Rot=    1.000000    0.000000    0.000000    0.000000 Ang=   0.00 deg.
 Initial guess orbital symmetries:
       Occupied  (A) (A) (A) (A) (A) (A) (A) (A) (A) (A) (A) (A)
                 (A) (A) (A) (A) (A) (A) (A) (A) (A) (A) (A) (A)
       Virtual   (A) (A) (A) (A) (A) (A) (A) (A) (A) (A) (A) (A)
                 (A) (A) (A) (A) (A) (A) (A) (A) (A) (A) (A) (A)
                 (A) (A) (A) (A) (A) (A) (A) (A)
 Requested convergence on RMS density matrix=1.00D-08 within 128 cycles.
 Requested convergence on MAX density matrix=1.00D-06.
 Requested convergence on             energy=1.00D-06.
 No special actions if energy rises.
 Keep R1 ints in memory in canonical form, NReq=6591561.
 Defaulting to unpruned grid for atomic number  79.
 Defaulting to unpruned grid for atomic number  79.
 Defaulting to unpruned grid for atomic number  79.
 Defaulting to unpruned grid for atomic number  79.
 Error on total polarization charges =  0.01051
 SCF Done:  E(RM062X) =  -195.483833068     A.U. after    1 cycles
             Convg  =    0.1156D-08             -V/T =  3.9713
 SMD-CDS (non-electrostatic) energy             (kcal/mol) =       2.00
 (included in total energy above)

 **********************************************************************

            Population analysis using the SCF density.

 **********************************************************************

 Orbital symmetries:
       Occupied  (A) (A) (A) (A) (A) (A) (A) (A) (A) (A) (A) (A)
                 (A) (A) (A) (A) (A) (A) (A) (A) (A) (A) (A) (A)
       Virtual   (A) (A) (A) (A) (A) (A) (A) (A) (A) (A) (A) (A)
                 (A) (A) (A) (A) (A) (A) (A) (A) (A) (A) (A) (A)
                 (A) (A) (A) (A) (A) (A) (A) (A)
 The electronic state is 1-A.
 Alpha  occ. eigenvalues --   -4.43639  -2.55174  -2.54217  -2.51598  -0.99941
 Alpha  occ. eigenvalues --   -0.86334  -0.85632  -0.84323  -0.57176  -0.51393
 Alpha  occ. eigenvalues --   -0.50963  -0.50074  -0.48311  -0.47576  -0.46836
 Alpha  occ. eigenvalues --   -0.46748  -0.40378  -0.39244  -0.39075  -0.37875
 Alpha  occ. eigenvalues --   -0.36226  -0.36165  -0.34435  -0.34148
 Alpha virt. eigenvalues --   -0.15406  -0.09998  -0.00134   0.02284   0.04251
 Alpha virt. eigenvalues --    0.06988   0.12662   0.25698   0.25859   0.37386
 Alpha virt. eigenvalues --    0.39876   0.41718   0.46421   0.54959   0.64673
 Alpha virt. eigenvalues --    0.66404   0.69796   0.73415   0.75596   0.79490
 Alpha virt. eigenvalues --    0.79851   0.79977   0.80614   0.81734   0.84515
 Alpha virt. eigenvalues --    0.86689   1.11096   3.14228   4.88438   7.20287
 Alpha virt. eigenvalues --    8.05526   9.43884
          Condensed to atoms (all electrons):
              1          2          3          4          5          6
     1  Au  17.921406   0.253302  -0.008108   0.249286   0.005575   0.257894
     2  Cl   0.253302   7.031197  -0.000111  -0.001218  -0.000003   0.008453
     3  Cl  -0.008108  -0.000111   6.906487  -0.002312   0.094479  -0.001332
     4  Cl   0.249286  -0.001218  -0.002312   7.034737  -0.001924   0.007094
     5  Cl   0.005575  -0.000003   0.094479  -0.001924   6.877435  -0.002221
     6  H    0.257894   0.008453  -0.001332   0.007094  -0.002221   0.511033
 Mulliken atomic charges:
              1
     1  Au   0.320646
     2  Cl  -0.291619
     3  Cl   0.010898
     4  Cl  -0.285664
     5  Cl   0.026659
     6  H    0.219079
 Sum of Mulliken atomic charges =   0.00000
 Mulliken charges with hydrogens summed into heavy atoms:
              1
     1  Au   0.539725
     2  Cl  -0.291619
     3  Cl   0.010898
     4  Cl  -0.285664
     5  Cl   0.026659
 Sum of Mulliken charges with hydrogens summed into heavy atoms =   0.00000
 Electronic spatial extent (au):  <R**2>=           1049.7895
 Charge=              0.0000 electrons
 Dipole moment (field-independent basis, Debye):
    X=              0.4597    Y=              0.0667    Z=              0.3810  Tot=              0.6008
 Quadrupole moment (field-independent basis, Debye-Ang):
   XX=            -78.0946   YY=            -85.5659   ZZ=            -69.7305
   XY=            -12.3757   XZ=              0.2559   YZ=              3.1251
 Traceless Quadrupole moment (field-independent basis, Debye-Ang):
   XX=             -0.2976   YY=             -7.7689   ZZ=              8.0665
   XY=            -12.3757   XZ=              0.2559   YZ=              3.1251
 Octapole moment (field-independent basis, Debye-Ang**2):
  XXX=            -61.1180  YYY=             16.4682  ZZZ=              4.7340  XYY=            -21.4411
  XXY=             26.9258  XXZ=              5.8207  XZZ=            -22.5293  YZZ=              6.6017
  YYZ=              1.8977  XYZ=              0.3101
 Hexadecapole moment (field-independent basis, Debye-Ang**3):
 XXXX=          -1809.2221 YYYY=           -798.5799 ZZZZ=           -215.9981 XXXY=            -72.8287
 XXXZ=             14.1750 YYYX=            -58.7200 YYYZ=              9.6769 ZZZX=              3.9115
 ZZZY=             10.7785 XXYY=           -444.6572 XXZZ=           -318.4468 YYZZ=           -163.6852
 XXYZ=              6.8103 YYXZ=             -1.5434 ZZXY=            -15.9998
 N-N= 1.462886934975D+02 E-N=-6.922040801024D+02  KE= 6.579115188837D+01
   1 Symmetry operations used in ECPInt.
 ECPInt:  NShTT=     351 NPrTT=    1012 LenC2=     352 LenP2D=     963.
 LDataN:  DoStor=T MaxTD1= 7 Len=  274
 D1PCM: PCM CHGder 1st derivatives, ID1Alg=3 FixD1E=F DoIter=F DoCFld=F I1PDM=0.
 Calling FoFJK, ICntrl=      2127 FMM=F ISym2X=0 I1Cent= 0 IOpClX= 0 NMat=1 NMatS=1 NMatT=0.
 Defaulting to unpruned grid for atomic number  79.
 Defaulting to unpruned grid for atomic number  79.
 Defaulting to unpruned grid for atomic number  79.
 Defaulting to unpruned grid for atomic number  79.
 ***** Axes restored to original set *****
 -------------------------------------------------------------------
 Center     Atomic                   Forces (Hartrees/Bohr)
 Number     Number              X              Y              Z
 -------------------------------------------------------------------
      1       79           0.001897206   -0.001550046    0.000805590
      2       17          -0.000887233   -0.000140175   -0.000247444
      3       17           0.001851574   -0.001326553   -0.001446622
      4       17          -0.000810060    0.000042477    0.000074126
      5       17          -0.001418232    0.001091487    0.001049858
      6        1          -0.000633256    0.001882808   -0.000235508
 -------------------------------------------------------------------
 Cartesian Forces:  Max     0.001897206 RMS     0.001149147

 GradGradGradGradGradGradGradGradGradGradGradGradGradGradGradGradGradGrad
 Berny optimization.
 Internal  Forces:  Max     0.009707846 RMS     0.002805303
 Search for a local minimum.
 Step number   1 out of a maximum of   31
 All quantities printed in internal units (Hartrees-Bohrs-Radians)
 Mixed Optimization -- RFO/linear search
 Second derivative matrix not updated -- first step.
     Eigenvalues ---    0.00322   0.00851   0.01046   0.01448   0.02872
     Eigenvalues ---    0.10420   0.15451   0.15556   0.15812   0.21162
     Eigenvalues ---    0.22185   0.248251000.000001000.000001000.00000
     Eigenvalues --- 1000.000001000.000001000.000001000.000001000.00000
     Eigenvalues --- 1000.00000
 RFO step:  Lambda=-1.11054511D-03 EMin= 3.21988850D-03
 Linear search not attempted -- first point.
 Iteration  1 RMS(Cart)=  0.06567192 RMS(Int)=  0.00211521
 Iteration  2 RMS(Cart)=  0.00362103 RMS(Int)=  0.00136024
 Iteration  3 RMS(Cart)=  0.00001657 RMS(Int)=  0.00136023
 Iteration  4 RMS(Cart)=  0.00000005 RMS(Int)=  0.00136023
 Variable       Old X    -DE/DX   Delta X   Delta X   Delta X     New X
                                 (Linear)    (Quad)   (Total)
    R1        4.55232   0.00051   0.00000   0.00324   0.00324   4.55556
    R2        7.24798   0.00002   0.00000   0.00148   0.00148   7.24946
    R3        4.55736  -0.00020   0.00000  -0.00131  -0.00131   4.55605
    R4        7.81236   0.00096   0.00000   0.08310   0.08310   7.89546
    R5        2.86066  -0.00168   0.00000  -0.00674  -0.00674   2.85392
    A1        1.83773  -0.00238   0.00000   0.00123   0.00159   1.83932
    A2        3.06557   0.00018   0.00000   0.00599   0.00530   3.07087
    A3        2.01328   0.00156   0.00000  -0.00068  -0.00073   2.01255
    A4        1.56835   0.00057   0.00000  -0.01404  -0.01127   1.55708
    A5        1.25238   0.00249   0.00000  -0.00095  -0.00140   1.25098
    A6        0.54977   0.00971   0.00000   0.05293   0.05309   0.60286
    A7        0.40772  -0.00499   0.00000  -0.02874  -0.02623   0.38148
    A8        1.11496  -0.00082   0.00000   0.00120   0.00117   1.11613
    A9        0.94768   0.00480   0.00000   0.01413   0.01473   0.96241
    D1       -0.83573   0.00031   0.00000   0.06866   0.06862  -0.76711
    D2        1.35454   0.00045   0.00000   0.04844   0.04599   1.40054
    D3       -2.30622  -0.00088   0.00000  -0.10822  -0.10794  -2.41416
    D4        3.05850   0.00001   0.00000   0.00669   0.00593   3.06443
    D5       -2.12827   0.00060   0.00000  -0.00465  -0.00185  -2.13012
    D6        1.70396  -0.00044   0.00000  -0.04175  -0.04006   1.66390
    D7        0.17795   0.00148   0.00000   0.10356   0.10609   0.28404
         Item               Value     Threshold  Converged?
 Maximum Force            0.009708     0.000450     NO 
 RMS     Force            0.002805     0.000300     NO 
 Maximum Displacement     0.179921     0.001800     NO 
 RMS     Displacement     0.068572     0.001200     NO 
 Predicted change in Energy=-5.872273D-04
 GradGradGradGradGradGradGradGradGradGradGradGradGradGradGradGradGradGrad

                          Input orientation:                          
 ---------------------------------------------------------------------
 Center     Atomic      Atomic             Coordinates (Angstroms)
 Number     Number       Type             X           Y           Z
 ---------------------------------------------------------------------
      1         79           0        0.072755    1.709736   -0.890778
      2         17           0       -0.516516    1.864596   -3.223209
      3         17           0       -1.282610   -1.683347    0.278310
      4         17           0        0.707639    1.393070    1.413428
      5         17           0       -2.724033   -0.228941    1.533273
      6          1           0       -0.229004    0.230596   -0.934153
 ---------------------------------------------------------------------
                    Distance matrix (angstroms):
                    1          2          3          4          5
     1  Au   0.000000
     2  Cl   2.410696   0.000000
     3  Cl   3.836247   5.043355   0.000000
     4  Cl   2.410958   4.818640   3.835874   0.000000
     5  Cl   4.178099   5.646251   2.401652   3.797586   0.000000
     6  H    1.510230   2.827083   2.498665   2.782046   3.539002
                    6
     6  H    0.000000
 Stoichiometry    AuCl4H
 Framework group  C1[X(AuCl4H)]
 Deg. of freedom    12
 Full point group                 C1      NOp   1
 Largest Abelian subgroup         C1      NOp   1
 Largest concise Abelian subgroup C1      NOp   1
                         Standard orientation:                         
 ---------------------------------------------------------------------
 Center     Atomic      Atomic             Coordinates (Angstroms)
 Number     Number       Type             X           Y           Z
 ---------------------------------------------------------------------
      1         79           0        0.859807    0.250445   -0.027723
      2         17           0        2.314636   -1.666835   -0.165429
      3         17           0       -2.534965   -1.127470    1.109672
      4         17           0       -0.654099    2.105083    0.257104
      5         17           0       -3.113981   -0.440641   -1.117644
      6          1           0       -0.121764   -0.577501    0.767148
 ---------------------------------------------------------------------
 Rotational constants (GHZ):      1.2433467      0.5054151      0.4125851
 Standard basis: LANL2DZ (5D, 7F)
 There are    56 symmetry adapted basis functions of A   symmetry.
 Integral buffers will be    262144 words long.
 Raffenetti 2 integral format.
 Two-electron integral symmetry is turned on.
    56 basis functions,    95 primitive gaussians,    58 cartesian basis functions
    24 alpha electrons       24 beta electrons
       nuclear repulsion energy       144.9060033301 Hartrees.
 NAtoms=    6 NActive=    6 NUniq=    6 SFac= 7.50D-01 NAtFMM=   80 NAOKFM=F Big=F
 ------------------------------------------------------------------------------
 Polarizable Continuum Model (PCM)
 =================================
 Model                : PCM.
 Atomic radii         : SMD-Coulomb.
 Polarization charges : Total charges.
 Charge compensation  : None.
 Solution method      : Matrix inversion.
 Cavity type          : VdW (van der Waals Surface) (Alpha=1.000).
 Cavity algorithm     : GePol (No added spheres)
                        Default sphere list used, NSphG=    6.
                        Lebedev-Laikov grids with approx.  5.0 points / Ang**2.
                        Smoothing algorithm: Karplus/York (Gamma=1.0000).
                        Polarization charges: spherical gaussians, with
                                              point-specific exponents (IZeta= 3).
                        Self-potential: point-specific (ISelfS= 7).
                        Self-field    : sphere-specific E.n sum rule (ISelfD= 2).
 1st derivatives      : Analytical E(r).r(x)/FMM algorithm (CHGder, D1EAlg=3).
                        Cavity 1st derivative terms included.
 Solvent              : Water, Eps=  78.355300 Eps(inf)=   1.777849
 ------------------------------------------------------------------------------
 Spheres list:
 ISph  on   Nord    Re0     Alpha      Xe            Ye            Ze
    1  Au      1    1.660   1.000      0.859807      0.250445     -0.027723
    2  Cl      2    2.380   1.000      2.314636     -1.666835     -0.165429
    3  Cl      3    2.380   1.000     -2.534965     -1.127470      1.109672
    4  Cl      4    2.380   1.000     -0.654099      2.105083      0.257104
    5  Cl      5    2.380   1.000     -3.113981     -0.440641     -1.117644
    6   H      6    1.200   1.000     -0.121764     -0.577501      0.767148
 ------------------------------------------------------------------------------
 ------------------------------------------------------------------------------
 Atomic radii for non-electrostatic terms: SMD-CDS.
 ------------------------------------------------------------------------------
 Nuclear repulsion after PCM non-electrostatic terms =      144.9092220724 Hartrees.
 One-electron integrals computed using PRISM.
   1 Symmetry operations used in ECPInt.
 ECPInt:  NShTT=     351 NPrTT=    1012 LenC2=     352 LenP2D=     960.
 LDataN:  DoStor=T MaxTD1= 6 Len=  172
 NBasis=    56 RedAO= T  NBF=    56
 NBsUse=    56 1.00D-06 NBFU=    56
 Defaulting to unpruned grid for atomic number  79.
 Initial guess read from the read-write file.
 B after Tr=     0.000000    0.000000    0.000000
         Rot=    1.000000    0.000000    0.000000    0.000000 Ang=   0.00 deg.
 Initial guess orbital symmetries:
       Occupied  (A) (A) (A) (A) (A) (A) (A) (A) (A) (A) (A) (A)
                 (A) (A) (A) (A) (A) (A) (A) (A) (A) (A) (A) (A)
       Virtual   (A) (A) (A) (A) (A) (A) (A) (A) (A) (A) (A) (A)
                 (A) (A) (A) (A) (A) (A) (A) (A) (A) (A) (A) (A)
                 (A) (A) (A) (A) (A) (A) (A) (A)
 Harris functional with IExCor= 1009 diagonalized for initial guess.
 ExpMin= 2.79D-02 ExpMax= 1.92D+01 ExpMxC= 1.92D+01 IAcc=3 IRadAn=         0 AccDes= 0.00D+00
 HarFok:  IExCor= 1009 AccDes= 0.00D+00 IRadAn=         0 IDoV= 1
 ScaDFX=  1.000000  1.000000  1.000000  1.000000
 Defaulting to unpruned grid for atomic number  79.
 Defaulting to unpruned grid for atomic number  79.
 Defaulting to unpruned grid for atomic number  79.
 Defaulting to unpruned grid for atomic number  79.
 FoFCou: FMM=F IPFlag=           0 FMFlag=      100000 FMFlg1=           0
         NFxFlg=           0 DoJE=T BraDBF=F KetDBF=T FulRan=T
         Omega=  0.000000  0.000000  1.000000  0.000000  0.000000 ICntrl=     500 IOpCl=  0
         NMat0=    1 NMatS0=    1 NMatT0=    0 NMatD0=    1 NMtDS0=    0 NMtDT0=    0
         I1Cent=           4 NGrid=           0.
 Petite list used in FoFCou.
 Requested convergence on RMS density matrix=1.00D-08 within 128 cycles.
 Requested convergence on MAX density matrix=1.00D-06.
 Requested convergence on             energy=1.00D-06.
 No special actions if energy rises.
 Keep R1 ints in memory in canonical form, NReq=6624198.
 Defaulting to unpruned grid for atomic number  79.
 Defaulting to unpruned grid for atomic number  79.
 Defaulting to unpruned grid for atomic number  79.
 Defaulting to unpruned grid for atomic number  79.
 Error on total polarization charges =  0.01039
 SCF Done:  E(RM062X) =  -195.473962409     A.U. after   17 cycles
             Convg  =    0.6847D-08             -V/T =  3.9759
 SMD-CDS (non-electrostatic) energy             (kcal/mol) =       2.02
 (included in total energy above)
   1 Symmetry operations used in ECPInt.
 ECPInt:  NShTT=     351 NPrTT=    1012 LenC2=     352 LenP2D=     960.
 LDataN:  DoStor=T MaxTD1= 7 Len=  274
 D1PCM: PCM CHGder 1st derivatives, ID1Alg=3 FixD1E=F DoIter=F DoCFld=F I1PDM=0.
 Calling FoFJK, ICntrl=      2127 FMM=F ISym2X=0 I1Cent= 0 IOpClX= 0 NMat=1 NMatS=1 NMatT=0.
 Defaulting to unpruned grid for atomic number  79.
 Defaulting to unpruned grid for atomic number  79.
 Defaulting to unpruned grid for atomic number  79.
 Defaulting to unpruned grid for atomic number  79.
 ***** Axes restored to original set *****
 -------------------------------------------------------------------
 Center     Atomic                   Forces (Hartrees/Bohr)
 Number     Number              X              Y              Z
 -------------------------------------------------------------------
      1       79           0.001511557   -0.001386861   -0.000076661
      2       17          -0.000954997    0.000523170   -0.000051046
      3       17          -0.026347253    0.025506023    0.023381939
      4       17          -0.000708424    0.000008397    0.000060017
      5       17           0.026433076   -0.025822595   -0.023536073
      6        1           0.000066041    0.001171867    0.000221824
 -------------------------------------------------------------------
 Cartesian Forces:  Max     0.026433076 RMS     0.014564503

 GradGradGradGradGradGradGradGradGradGradGradGradGradGradGradGradGradGrad
 Berny optimization.
 Using GEDIIS/GDIIS optimizer.
 Internal  Forces:  Max     0.181094778 RMS     0.052050554
 Search for a local minimum.
 Step number   2 out of a maximum of   31
 All quantities printed in internal units (Hartrees-Bohrs-Radians)
 Mixed Optimization -- RFO/linear search
 Update second derivatives using D2CorX and points    2    1
 DE=  9.87D-03 DEPred=-5.87D-04 R=-1.68D+01
 Trust test=-1.68D+01 RLast= 2.05D-01 DXMaxT set to 1.50D-01
 Use linear search instead of GDIIS.
 Quartic linear search produced a step of -0.96000.
 Iteration  1 RMS(Cart)=  0.06560352 RMS(Int)=  0.00225814
 Iteration  2 RMS(Cart)=  0.00194862 RMS(Int)=  0.00005210
 Iteration  3 RMS(Cart)=  0.00000517 RMS(Int)=  0.00005183
 Iteration  4 RMS(Cart)=  0.00000000 RMS(Int)=  0.00005183
 Variable       Old X    -DE/DX   Delta X   Delta X   Delta X     New X
                                 (Linear)    (Quad)   (Total)
    R1        4.55556   0.00034  -0.00311   0.00000  -0.00311   4.55245
    R2        7.24946  -0.00614  -0.00142   0.00000  -0.00142   7.24804
    R3        4.55605  -0.00016   0.00126   0.00000   0.00126   4.55731
    R4        7.89546  -0.01934  -0.07978   0.00000  -0.07978   7.81569
    R5        2.85392  -0.00120   0.00647   0.00000   0.00647   2.86039
    A1        1.83932   0.03812  -0.00153   0.00000  -0.00154   1.83779
    A2        3.07087   0.00303  -0.00509   0.00000  -0.00507   3.06580
    A3        2.01255  -0.03515   0.00070   0.00000   0.00071   2.01326
    A4        1.55708  -0.01890   0.01082   0.00000   0.01071   1.56779
    A5        1.25098  -0.03594   0.00135   0.00000   0.00136   1.25234
    A6        0.60286  -0.18109  -0.05097   0.00000  -0.05099   0.55188
    A7        0.38148   0.07961   0.02518   0.00000   0.02510   0.40659
    A8        1.11613   0.02291  -0.00112   0.00000  -0.00112   1.11501
    A9        0.96241  -0.10664  -0.01414   0.00000  -0.01416   0.94825
    D1       -0.76711  -0.00018  -0.06587   0.00000  -0.06587  -0.83298
    D2        1.40054  -0.00470  -0.04415   0.00000  -0.04406   1.35647
    D3       -2.41416   0.00496   0.10362   0.00000   0.10362  -2.31054
    D4        3.06443   0.00702  -0.00570   0.00000  -0.00567   3.05877
    D5       -2.13012  -0.01822   0.00178   0.00000   0.00167  -2.12845
    D6        1.66390   0.01173   0.03846   0.00000   0.03840   1.70229
    D7        0.28404  -0.02318  -0.10184   0.00000  -0.10195   0.18209
         Item               Value     Threshold  Converged?
 Maximum Force            0.181095     0.000450     NO 
 RMS     Force            0.052051     0.000300     NO 
 Maximum Displacement     0.172753     0.001800     NO 
 RMS     Displacement     0.065829     0.001200     NO 
 Predicted change in Energy=-1.341168D-03
 GradGradGradGradGradGradGradGradGradGradGradGradGradGradGradGradGradGrad

                          Input orientation:                          
 ---------------------------------------------------------------------
 Center     Atomic      Atomic             Coordinates (Angstroms)
 Number     Number       Type             X           Y           Z
 ---------------------------------------------------------------------
      1         79           0        0.065054    1.717575   -0.892319
      2         17           0       -0.517542    1.857924   -3.225646
      3         17           0       -1.374027   -1.628060    0.310514
      4         17           0        0.703674    1.405782    1.412214
      5         17           0       -2.649155   -0.295047    1.492623
      6          1           0       -0.199772    0.227537   -0.920516
 ---------------------------------------------------------------------
                    Distance matrix (angstroms):
                    1          2          3          4          5
     1  Au   0.000000
     2  Cl   2.409052   0.000000
     3  Cl   3.835497   5.038857   0.000000
     4  Cl   2.411623   4.817214   3.838592   0.000000
     5  Cl   4.135882   5.607237   2.190949   3.760418   0.000000
     6  H    1.513652   2.841260   2.517449   2.765160   3.477903
                    6
     6  H    0.000000
 Stoichiometry    AuCl4H
 Framework group  C1[X(AuCl4H)]
 Deg. of freedom    12
 Full point group                 C1      NOp   1
 Largest Abelian subgroup         C1      NOp   1
 Largest concise Abelian subgroup C1      NOp   1
                         Standard orientation:                         
 ---------------------------------------------------------------------
 Center     Atomic      Atomic             Coordinates (Angstroms)
 Number     Number       Type             X           Y           Z
 ---------------------------------------------------------------------
      1         79           0       -0.862782    0.247507    0.028686
      2         17           0       -2.303471   -1.680535    0.131650
      3         17           0        2.573069   -1.110521   -1.001715
      4         17           0        0.639266    2.115650   -0.235549
      5         17           0        3.092953   -0.442814    1.019211
      6          1           0        0.128883   -0.543291   -0.797378
 ---------------------------------------------------------------------
 Rotational constants (GHZ):      1.2890293      0.5132329      0.4117969
 Standard basis: LANL2DZ (5D, 7F)
 There are    56 symmetry adapted basis functions of A   symmetry.
 Integral buffers will be    262144 words long.
 Raffenetti 2 integral format.
 Two-electron integral symmetry is turned on.
    56 basis functions,    95 primitive gaussians,    58 cartesian basis functions
    24 alpha electrons       24 beta electrons
       nuclear repulsion energy       146.2264321276 Hartrees.
 NAtoms=    6 NActive=    6 NUniq=    6 SFac= 7.50D-01 NAtFMM=   80 NAOKFM=F Big=F
 ------------------------------------------------------------------------------
 Polarizable Continuum Model (PCM)
 =================================
 Model                : PCM.
 Atomic radii         : SMD-Coulomb.
 Polarization charges : Total charges.
 Charge compensation  : None.
 Solution method      : Matrix inversion.
 Cavity type          : VdW (van der Waals Surface) (Alpha=1.000).
 Cavity algorithm     : GePol (No added spheres)
                        Default sphere list used, NSphG=    6.
                        Lebedev-Laikov grids with approx.  5.0 points / Ang**2.
                        Smoothing algorithm: Karplus/York (Gamma=1.0000).
                        Polarization charges: spherical gaussians, with
                                              point-specific exponents (IZeta= 3).
                        Self-potential: point-specific (ISelfS= 7).
                        Self-field    : sphere-specific E.n sum rule (ISelfD= 2).
 1st derivatives      : Analytical E(r).r(x)/FMM algorithm (CHGder, D1EAlg=3).
                        Cavity 1st derivative terms included.
 Solvent              : Water, Eps=  78.355300 Eps(inf)=   1.777849
 ------------------------------------------------------------------------------
 Spheres list:
 ISph  on   Nord    Re0     Alpha      Xe            Ye            Ze
    1  Au      1    1.660   1.000     -0.862782      0.247507      0.028686
    2  Cl      2    2.380   1.000     -2.303471     -1.680535      0.131650
    3  Cl      3    2.380   1.000      2.573069     -1.110521     -1.001715
    4  Cl      4    2.380   1.000      0.639266      2.115650     -0.235549
    5  Cl      5    2.380   1.000      3.092953     -0.442814      1.019211
    6   H      6    1.200   1.000      0.128883     -0.543291     -0.797378
 ------------------------------------------------------------------------------
 ------------------------------------------------------------------------------
 Atomic radii for non-electrostatic terms: SMD-CDS.
 ------------------------------------------------------------------------------
 Nuclear repulsion after PCM non-electrostatic terms =      146.2296220297 Hartrees.
 One-electron integrals computed using PRISM.
   1 Symmetry operations used in ECPInt.
 ECPInt:  NShTT=     351 NPrTT=    1012 LenC2=     352 LenP2D=     963.
 LDataN:  DoStor=T MaxTD1= 6 Len=  172
 NBasis=    56 RedAO= T  NBF=    56
 NBsUse=    56 1.00D-06 NBFU=    56
 Defaulting to unpruned grid for atomic number  79.
 Initial guess read from the read-write file.
 B after Tr=     0.000000    0.000000    0.000000
         Rot=    1.000000    0.000000    0.000000    0.000000 Ang=   0.00 deg.
 Initial guess orbital symmetries:
       Occupied  (A) (A) (A) (A) (A) (A) (A) (A) (A) (A) (A) (A)
                 (A) (A) (A) (A) (A) (A) (A) (A) (A) (A) (A) (A)
       Virtual   (A) (A) (A) (A) (A) (A) (A) (A) (A) (A) (A) (A)
                 (A) (A) (A) (A) (A) (A) (A) (A) (A) (A) (A) (A)
                 (A) (A) (A) (A) (A) (A) (A) (A)
 Harris functional with IExCor= 1009 diagonalized for initial guess.
 ExpMin= 2.79D-02 ExpMax= 1.92D+01 ExpMxC= 1.92D+01 IAcc=3 IRadAn=         0 AccDes= 0.00D+00
 HarFok:  IExCor= 1009 AccDes= 0.00D+00 IRadAn=         0 IDoV= 1
 ScaDFX=  1.000000  1.000000  1.000000  1.000000
 Defaulting to unpruned grid for atomic number  79.
 Defaulting to unpruned grid for atomic number  79.
 Defaulting to unpruned grid for atomic number  79.
 Defaulting to unpruned grid for atomic number  79.
 FoFCou: FMM=F IPFlag=           0 FMFlag=      100000 FMFlg1=           0
         NFxFlg=           0 DoJE=T BraDBF=F KetDBF=T FulRan=T
         Omega=  0.000000  0.000000  1.000000  0.000000  0.000000 ICntrl=     500 IOpCl=  0
         NMat0=    1 NMatS0=    1 NMatT0=    0 NMatD0=    1 NMtDS0=    0 NMtDT0=    0
         I1Cent=           4 NGrid=           0.
 Petite list used in FoFCou.
 Requested convergence on RMS density matrix=1.00D-08 within 128 cycles.
 Requested convergence on MAX density matrix=1.00D-06.
 Requested convergence on             energy=1.00D-06.
 No special actions if energy rises.
 Keep R1 ints in memory in canonical form, NReq=6594525.
 Defaulting to unpruned grid for atomic number  79.
 Defaulting to unpruned grid for atomic number  79.
 Defaulting to unpruned grid for atomic number  79.
 Defaulting to unpruned grid for atomic number  79.
 Error on total polarization charges =  0.01051
 SCF Done:  E(RM062X) =  -195.483855764     A.U. after   16 cycles
             Convg  =    0.3263D-08             -V/T =  3.9715
 SMD-CDS (non-electrostatic) energy             (kcal/mol) =       2.00
 (included in total energy above)
   1 Symmetry operations used in ECPInt.
 ECPInt:  NShTT=     351 NPrTT=    1012 LenC2=     352 LenP2D=     963.
 LDataN:  DoStor=T MaxTD1= 7 Len=  274
 D1PCM: PCM CHGder 1st derivatives, ID1Alg=3 FixD1E=F DoIter=F DoCFld=F I1PDM=0.
 Calling FoFJK, ICntrl=      2127 FMM=F ISym2X=0 I1Cent= 0 IOpClX= 0 NMat=1 NMatS=1 NMatT=0.
 Defaulting to unpruned grid for atomic number  79.
 Defaulting to unpruned grid for atomic number  79.
 Defaulting to unpruned grid for atomic number  79.
 Defaulting to unpruned grid for atomic number  79.
 ***** Axes restored to original set *****
 -------------------------------------------------------------------
 Center     Atomic                   Forces (Hartrees/Bohr)
 Number     Number              X              Y              Z
 -------------------------------------------------------------------
      1       79           0.001883038   -0.001544628    0.000777486
      2       17          -0.000889549   -0.000117204   -0.000240524
      3       17           0.000248655    0.000279661    0.000037055
      4       17          -0.000797484    0.000046270    0.000066978
      5       17           0.000169898   -0.000516532   -0.000423029
      6        1          -0.000614557    0.001852434   -0.000217965
 -------------------------------------------------------------------
 Cartesian Forces:  Max     0.001883038 RMS     0.000833814

 GradGradGradGradGradGradGradGradGradGradGradGradGradGradGradGradGradGrad
 Berny optimization.
 Using GEDIIS/GDIIS optimizer.
 Internal  Forces:  Max     0.001776552 RMS     0.000712356
 Search for a local minimum.
 Step number   3 out of a maximum of   31
 All quantities printed in internal units (Hartrees-Bohrs-Radians)
 Mixed Optimization -- En-DIIS/RFO-DIIS
 Update second derivatives using D2CorX and points    2    1    3
 Use linear search instead of GDIIS.
     Eigenvalues ---    0.00318   0.00848   0.01163   0.01457   0.03084
     Eigenvalues ---    0.10419   0.15445   0.15530   0.15789   0.21117
     Eigenvalues ---    0.24558   5.087011000.000001000.000001000.00000
     Eigenvalues --- 1000.000001000.000001000.000001000.000001000.00000
     Eigenvalues --- 1000.00000
 RFO step:  Lambda=-1.32733516D-04 EMin= 3.18374745D-03
 Quartic linear search produced a step of -0.00787.
 Iteration  1 RMS(Cart)=  0.01666365 RMS(Int)=  0.00115886
 Iteration  2 RMS(Cart)=  0.00079299 RMS(Int)=  0.00024040
 Iteration  3 RMS(Cart)=  0.00000160 RMS(Int)=  0.00024039
 Iteration  4 RMS(Cart)=  0.00000000 RMS(Int)=  0.00024039
 Variable       Old X    -DE/DX   Delta X   Delta X   Delta X     New X
                                 (Linear)    (Quad)   (Total)
    R1        4.55245   0.00050   0.00000   0.00352   0.00352   4.55597
    R2        7.24804  -0.00031   0.00000  -0.02063  -0.02063   7.22741
    R3        4.55731  -0.00021   0.00000  -0.00145  -0.00145   4.55585
    R4        7.81569  -0.00014  -0.00003  -0.00349  -0.00351   7.81217
    R5        2.86039  -0.00166   0.00000  -0.00731  -0.00731   2.85308
    A1        1.83779   0.00007   0.00000   0.00271   0.00271   1.84049
    A2        3.06580   0.00026   0.00000   0.00716   0.00694   3.07274
    A3        2.01326  -0.00071   0.00000  -0.00383  -0.00371   2.00954
    A4        1.56779  -0.00035   0.00000  -0.01566  -0.01503   1.55276
    A5        1.25234   0.00010   0.00000  -0.00223  -0.00183   1.25051
    A6        0.55188  -0.00178  -0.00002   0.00043   0.00062   0.55250
    A7        0.40659   0.00038   0.00001  -0.00549  -0.00494   0.40165
    A8        1.11501   0.00060   0.00000  -0.00064  -0.00023   1.11478
    A9        0.94825  -0.00149   0.00000  -0.01123  -0.01135   0.93689
    D1       -0.83298   0.00026  -0.00002   0.08008   0.08010  -0.75288
    D2        1.35647  -0.00010  -0.00002   0.01278   0.01267   1.36914
    D3       -2.31054  -0.00054   0.00003  -0.06991  -0.07002  -2.38056
    D4        3.05877   0.00034   0.00000   0.00903   0.00890   3.06766
    D5       -2.12845  -0.00004   0.00000  -0.01332  -0.01347  -2.14192
    D6        1.70229   0.00044   0.00001  -0.00375  -0.00377   1.69853
    D7        0.18209   0.00050  -0.00003   0.05659   0.05655   0.23863
         Item               Value     Threshold  Converged?
 Maximum Force            0.001777     0.000450     NO 
 RMS     Force            0.000712     0.000300     NO 
 Maximum Displacement     0.059383     0.001800     NO 
 RMS     Displacement     0.017225     0.001200     NO 
 Predicted change in Energy=-6.931741D-05
 GradGradGradGradGradGradGradGradGradGradGradGradGradGradGradGradGradGrad

                          Input orientation:                          
 ---------------------------------------------------------------------
 Center     Atomic      Atomic             Coordinates (Angstroms)
 Number     Number       Type             X           Y           Z
 ---------------------------------------------------------------------
      1         79           0        0.075830    1.710350   -0.889591
      2         17           0       -0.513259    1.856383   -3.222863
      3         17           0       -1.358055   -1.623761    0.316679
      4         17           0        0.703063    1.404840    1.418104
      5         17           0       -2.648151   -0.294845    1.487229
      6          1           0       -0.231197    0.232743   -0.932689
 ---------------------------------------------------------------------
                    Distance matrix (angstroms):
                    1          2          3          4          5
     1  Au   0.000000
     2  Cl   2.410915   0.000000
     3  Cl   3.824579   5.035220   0.000000
     4  Cl   2.410853   4.818911   3.825411   0.000000
     5  Cl   4.134023   5.600938   2.191017   3.758237   0.000000
     6  H    1.509782   2.821465   2.505462   2.787988   3.460638
                    6
     6  H    0.000000
 Stoichiometry    AuCl4H
 Framework group  C1[X(AuCl4H)]
 Deg. of freedom    12
 Full point group                 C1      NOp   1
 Largest Abelian subgroup         C1      NOp   1
 Largest concise Abelian subgroup C1      NOp   1
                         Standard orientation:                         
 ---------------------------------------------------------------------
 Center     Atomic      Atomic             Coordinates (Angstroms)
 Number     Number       Type             X           Y           Z
 ---------------------------------------------------------------------
      1         79           0       -0.861219    0.248829    0.026024
      2         17           0       -2.304901   -1.678953    0.135329
      3         17           0        2.564703   -1.100994   -1.007633
      4         17           0        0.645780    2.114032   -0.223341
      5         17           0        3.089035   -0.456829    1.019849
      6          1           0        0.127788   -0.570857   -0.767338
 ---------------------------------------------------------------------
 Rotational constants (GHZ):      1.2901491      0.5143417      0.4127766
 Standard basis: LANL2DZ (5D, 7F)
 There are    56 symmetry adapted basis functions of A   symmetry.
 Integral buffers will be    262144 words long.
 Raffenetti 2 integral format.
 Two-electron integral symmetry is turned on.
    56 basis functions,    95 primitive gaussians,    58 cartesian basis functions
    24 alpha electrons       24 beta electrons
       nuclear repulsion energy       146.3346976166 Hartrees.
 NAtoms=    6 NActive=    6 NUniq=    6 SFac= 7.50D-01 NAtFMM=   80 NAOKFM=F Big=F
 ------------------------------------------------------------------------------
 Polarizable Continuum Model (PCM)
 =================================
 Model                : PCM.
 Atomic radii         : SMD-Coulomb.
 Polarization charges : Total charges.
 Charge compensation  : None.
 Solution method      : Matrix inversion.
 Cavity type          : VdW (van der Waals Surface) (Alpha=1.000).
 Cavity algorithm     : GePol (No added spheres)
                        Default sphere list used, NSphG=    6.
                        Lebedev-Laikov grids with approx.  5.0 points / Ang**2.
                        Smoothing algorithm: Karplus/York (Gamma=1.0000).
                        Polarization charges: spherical gaussians, with
                                              point-specific exponents (IZeta= 3).
                        Self-potential: point-specific (ISelfS= 7).
                        Self-field    : sphere-specific E.n sum rule (ISelfD= 2).
 1st derivatives      : Analytical E(r).r(x)/FMM algorithm (CHGder, D1EAlg=3).
                        Cavity 1st derivative terms included.
 Solvent              : Water, Eps=  78.355300 Eps(inf)=   1.777849
 ------------------------------------------------------------------------------
 Spheres list:
 ISph  on   Nord    Re0     Alpha      Xe            Ye            Ze
    1  Au      1    1.660   1.000     -0.861219      0.248829      0.026024
    2  Cl      2    2.380   1.000     -2.304901     -1.678953      0.135329
    3  Cl      3    2.380   1.000      2.564703     -1.100994     -1.007633
    4  Cl      4    2.380   1.000      0.645780      2.114032     -0.223341
    5  Cl      5    2.380   1.000      3.089035     -0.456829      1.019849
    6   H      6    1.200   1.000      0.127788     -0.570857     -0.767338
 ------------------------------------------------------------------------------
 ------------------------------------------------------------------------------
 Atomic radii for non-electrostatic terms: SMD-CDS.
 ------------------------------------------------------------------------------
 Nuclear repulsion after PCM non-electrostatic terms =      146.3378777535 Hartrees.
 One-electron integrals computed using PRISM.
   1 Symmetry operations used in ECPInt.
 ECPInt:  NShTT=     351 NPrTT=    1012 LenC2=     352 LenP2D=     962.
 LDataN:  DoStor=T MaxTD1= 6 Len=  172
 NBasis=    56 RedAO= T  NBF=    56
 NBsUse=    56 1.00D-06 NBFU=    56
 Defaulting to unpruned grid for atomic number  79.
 Initial guess read from the read-write file.
 B after Tr=     0.000000    0.000000    0.000000
         Rot=    1.000000    0.000000    0.000000    0.000000 Ang=   0.00 deg.
 Initial guess orbital symmetries:
       Occupied  (A) (A) (A) (A) (A) (A) (A) (A) (A) (A) (A) (A)
                 (A) (A) (A) (A) (A) (A) (A) (A) (A) (A) (A) (A)
       Virtual   (A) (A) (A) (A) (A) (A) (A) (A) (A) (A) (A) (A)
                 (A) (A) (A) (A) (A) (A) (A) (A) (A) (A) (A) (A)
                 (A) (A) (A) (A) (A) (A) (A) (A)
 Harris functional with IExCor= 1009 diagonalized for initial guess.
 ExpMin= 2.79D-02 ExpMax= 1.92D+01 ExpMxC= 1.92D+01 IAcc=3 IRadAn=         0 AccDes= 0.00D+00
 HarFok:  IExCor= 1009 AccDes= 0.00D+00 IRadAn=         0 IDoV= 1
 ScaDFX=  1.000000  1.000000  1.000000  1.000000
 Defaulting to unpruned grid for atomic number  79.
 Defaulting to unpruned grid for atomic number  79.
 Defaulting to unpruned grid for atomic number  79.
 Defaulting to unpruned grid for atomic number  79.
 FoFCou: FMM=F IPFlag=           0 FMFlag=      100000 FMFlg1=           0
         NFxFlg=           0 DoJE=T BraDBF=F KetDBF=T FulRan=T
         Omega=  0.000000  0.000000  1.000000  0.000000  0.000000 ICntrl=     500 IOpCl=  0
         NMat0=    1 NMatS0=    1 NMatT0=    0 NMatD0=    1 NMtDS0=    0 NMtDT0=    0
         I1Cent=           4 NGrid=           0.
 Petite list used in FoFCou.
 Requested convergence on RMS density matrix=1.00D-08 within 128 cycles.
 Requested convergence on MAX density matrix=1.00D-06.
 Requested convergence on             energy=1.00D-06.
 No special actions if energy rises.
 Keep R1 ints in memory in canonical form, NReq=6594525.
 Defaulting to unpruned grid for atomic number  79.
 Defaulting to unpruned grid for atomic number  79.
 Defaulting to unpruned grid for atomic number  79.
 Defaulting to unpruned grid for atomic number  79.
 Error on total polarization charges =  0.01050
 SCF Done:  E(RM062X) =  -195.483960312     A.U. after   11 cycles
             Convg  =    0.4037D-08             -V/T =  3.9715
 SMD-CDS (non-electrostatic) energy             (kcal/mol) =       2.00
 (included in total energy above)
   1 Symmetry operations used in ECPInt.
 ECPInt:  NShTT=     351 NPrTT=    1012 LenC2=     352 LenP2D=     962.
 LDataN:  DoStor=T MaxTD1= 7 Len=  274
 D1PCM: PCM CHGder 1st derivatives, ID1Alg=3 FixD1E=F DoIter=F DoCFld=F I1PDM=0.
 Calling FoFJK, ICntrl=      2127 FMM=F ISym2X=0 I1Cent= 0 IOpClX= 0 NMat=1 NMatS=1 NMatT=0.
 Defaulting to unpruned grid for atomic number  79.
 Defaulting to unpruned grid for atomic number  79.
 Defaulting to unpruned grid for atomic number  79.
 Defaulting to unpruned grid for atomic number  79.
 ***** Axes restored to original set *****
 -------------------------------------------------------------------
 Center     Atomic                   Forces (Hartrees/Bohr)
 Number     Number              X              Y              Z
 -------------------------------------------------------------------
      1       79           0.001556308   -0.000364371   -0.000422647
      2       17          -0.000685195   -0.000043577    0.000094197
      3       17           0.000087530    0.000141264    0.000163871
      4       17          -0.000826885   -0.000181419    0.000085967
      5       17           0.000280553   -0.000516765   -0.000386646
      6        1          -0.000412311    0.000964868    0.000465257
 -------------------------------------------------------------------
 Cartesian Forces:  Max     0.001556308 RMS     0.000567889

 GradGradGradGradGradGradGradGradGradGradGradGradGradGradGradGradGradGrad
 Berny optimization.
 Using GEDIIS/GDIIS optimizer.
 Internal  Forces:  Max     0.001922210 RMS     0.000647217
 Search for a local minimum.
 Step number   4 out of a maximum of   31
 All quantities printed in internal units (Hartrees-Bohrs-Radians)
 Mixed Optimization -- En-DIIS/RFO-DIIS
 Swaping is turned off.
 Update second derivatives using D2CorX and points    2    1    3    4
 DE= -1.05D-04 DEPred=-6.93D-05 R= 1.51D+00
 SS=  1.41D+00  RLast= 1.26D-01 DXNew= 2.5227D-01 3.7840D-01
 Trust test= 1.51D+00 RLast= 1.26D-01 DXMaxT set to 2.52D-01
     Eigenvalues ---    0.00201   0.00636   0.01168   0.01471   0.03093
     Eigenvalues ---    0.11086   0.14929   0.15465   0.16154   0.22195
     Eigenvalues ---    0.23705   4.650041000.000001000.000001000.00000
     Eigenvalues --- 1000.000001000.000001000.000001000.000001000.00000
     Eigenvalues --- 1000.00000
 En-DIIS/RFO-DIIS IScMMF=        0 using points:     4    3
 RFO step:  Lambda=-1.27588586D-05.
 DIIS coeffs:      1.94972     -0.94972
 Iteration  1 RMS(Cart)=  0.01923247 RMS(Int)=  0.00134185
 Iteration  2 RMS(Cart)=  0.00107291 RMS(Int)=  0.00061532
 Iteration  3 RMS(Cart)=  0.00000243 RMS(Int)=  0.00061530
 Iteration  4 RMS(Cart)=  0.00000000 RMS(Int)=  0.00061530
 Variable       Old X    -DE/DX   Delta X   Delta X   Delta X     New X
                                  (DIIS)     (GDIIS)  (Total)
    R1        4.55597   0.00010   0.00334  -0.00064   0.00270   4.55867
    R2        7.22741  -0.00009  -0.01959   0.00581  -0.01378   7.21362
    R3        4.55585  -0.00013  -0.00138  -0.00082  -0.00220   4.55365
    R4        7.81217  -0.00019  -0.00334  -0.00406  -0.00739   7.80478
    R5        2.85308  -0.00083  -0.00695  -0.00245  -0.00940   2.84368
    A1        1.84049   0.00038   0.00257   0.00072   0.00337   1.84386
    A2        3.07274  -0.00004   0.00659  -0.00018   0.00548   3.07823
    A3        2.00954  -0.00040  -0.00353  -0.00283  -0.00599   2.00355
    A4        1.55276   0.00029  -0.01428   0.00335  -0.00932   1.54345
    A5        1.25051  -0.00042  -0.00174  -0.00488  -0.00564   1.24488
    A6        0.55250  -0.00192   0.00059   0.00016   0.00109   0.55358
    A7        0.40165   0.00007  -0.00469  -0.00806  -0.01138   0.39027
    A8        1.11478   0.00024  -0.00022  -0.00287  -0.00207   1.11271
    A9        0.93689  -0.00189  -0.01078  -0.00939  -0.02029   0.91660
    D1       -0.75288   0.00023   0.07608   0.08672   0.16290  -0.58998
    D2        1.36914  -0.00008   0.01203   0.00658   0.01825   1.38738
    D3       -2.38056  -0.00020  -0.06650  -0.01124  -0.07800  -2.45856
    D4        3.06766   0.00001   0.00845   0.00143   0.00956   3.07722
    D5       -2.14192  -0.00016  -0.01279   0.00210  -0.01083  -2.15275
    D6        1.69853   0.00009  -0.00358  -0.00514  -0.00868   1.68984
    D7        0.23863   0.00005   0.05370   0.01334   0.06717   0.30581
         Item               Value     Threshold  Converged?
 Maximum Force            0.001922     0.000450     NO 
 RMS     Force            0.000647     0.000300     NO 
 Maximum Displacement     0.069026     0.001800     NO 
 RMS     Displacement     0.020013     0.001200     NO 
 Predicted change in Energy=-5.296956D-05
 GradGradGradGradGradGradGradGradGradGradGradGradGradGradGradGradGradGrad

                          Input orientation:                          
 ---------------------------------------------------------------------
 Center     Atomic      Atomic             Coordinates (Angstroms)
 Number     Number       Type             X           Y           Z
 ---------------------------------------------------------------------
      1         79           0        0.089607    1.702952   -0.889451
      2         17           0       -0.510611    1.855746   -3.220931
      3         17           0       -1.337821   -1.622489    0.325273
      4         17           0        0.700746    1.399154    1.421567
      5         17           0       -2.645966   -0.291573    1.476201
      6          1           0       -0.267724    0.241920   -0.935788
 ---------------------------------------------------------------------
                    Distance matrix (angstroms):
                    1          2          3          4          5
     1  Au   0.000000
     2  Cl   2.412344   0.000000
     3  Cl   3.817285   5.035669   0.000000
     4  Cl   2.409687   4.819611   3.806303   0.000000
     5  Cl   4.130110   5.588719   2.192537   3.749937   0.000000
     6  H    1.504808   2.808079   2.492269   2.798972   3.429045
                    6
     6  H    0.000000
 Stoichiometry    AuCl4H
 Framework group  C1[X(AuCl4H)]
 Deg. of freedom    12
 Full point group                 C1      NOp   1
 Largest Abelian subgroup         C1      NOp   1
 Largest concise Abelian subgroup C1      NOp   1
                         Standard orientation:                         
 ---------------------------------------------------------------------
 Center     Atomic      Atomic             Coordinates (Angstroms)
 Number     Number       Type             X           Y           Z
 ---------------------------------------------------------------------
      1         79           0        0.860665    0.250775   -0.022517
      2         17           0        2.305403   -1.677620   -0.138408
      3         17           0       -2.560342   -1.086819    1.016337
      4         17           0       -0.656689    2.108520    0.207725
      5         17           0       -3.080004   -0.474648   -1.023863
      6          1           0       -0.134796   -0.591623    0.728396
 ---------------------------------------------------------------------
 Rotational constants (GHZ):      1.2923197      0.5152482      0.4139937
 Standard basis: LANL2DZ (5D, 7F)
 There are    56 symmetry adapted basis functions of A   symmetry.
 Integral buffers will be    262144 words long.
 Raffenetti 2 integral format.
 Two-electron integral symmetry is turned on.
    56 basis functions,    95 primitive gaussians,    58 cartesian basis functions
    24 alpha electrons       24 beta electrons
       nuclear repulsion energy       146.4735402062 Hartrees.
 NAtoms=    6 NActive=    6 NUniq=    6 SFac= 7.50D-01 NAtFMM=   80 NAOKFM=F Big=F
 ------------------------------------------------------------------------------
 Polarizable Continuum Model (PCM)
 =================================
 Model                : PCM.
 Atomic radii         : SMD-Coulomb.
 Polarization charges : Total charges.
 Charge compensation  : None.
 Solution method      : Matrix inversion.
 Cavity type          : VdW (van der Waals Surface) (Alpha=1.000).
 Cavity algorithm     : GePol (No added spheres)
                        Default sphere list used, NSphG=    6.
                        Lebedev-Laikov grids with approx.  5.0 points / Ang**2.
                        Smoothing algorithm: Karplus/York (Gamma=1.0000).
                        Polarization charges: spherical gaussians, with
                                              point-specific exponents (IZeta= 3).
                        Self-potential: point-specific (ISelfS= 7).
                        Self-field    : sphere-specific E.n sum rule (ISelfD= 2).
 1st derivatives      : Analytical E(r).r(x)/FMM algorithm (CHGder, D1EAlg=3).
                        Cavity 1st derivative terms included.
 Solvent              : Water, Eps=  78.355300 Eps(inf)=   1.777849
 ------------------------------------------------------------------------------
 Spheres list:
 ISph  on   Nord    Re0     Alpha      Xe            Ye            Ze
    1  Au      1    1.660   1.000      0.860665      0.250775     -0.022517
    2  Cl      2    2.380   1.000      2.305403     -1.677620     -0.138408
    3  Cl      3    2.380   1.000     -2.560342     -1.086819      1.016337
    4  Cl      4    2.380   1.000     -0.656689      2.108520      0.207725
    5  Cl      5    2.380   1.000     -3.080004     -0.474648     -1.023863
    6   H      6    1.200   1.000     -0.134796     -0.591623      0.728396
 ------------------------------------------------------------------------------
 ------------------------------------------------------------------------------
 Atomic radii for non-electrostatic terms: SMD-CDS.
 ------------------------------------------------------------------------------
 Nuclear repulsion after PCM non-electrostatic terms =      146.4767070944 Hartrees.
 One-electron integrals computed using PRISM.
   1 Symmetry operations used in ECPInt.
 ECPInt:  NShTT=     351 NPrTT=    1012 LenC2=     352 LenP2D=     963.
 LDataN:  DoStor=T MaxTD1= 6 Len=  172
 NBasis=    56 RedAO= T  NBF=    56
 NBsUse=    56 1.00D-06 NBFU=    56
 Defaulting to unpruned grid for atomic number  79.
 Initial guess read from the read-write file.
 B after Tr=     0.000000    0.000000    0.000000
         Rot=    1.000000    0.000000    0.000000    0.000000 Ang=   0.00 deg.
 Initial guess orbital symmetries:
       Occupied  (A) (A) (A) (A) (A) (A) (A) (A) (A) (A) (A) (A)
                 (A) (A) (A) (A) (A) (A) (A) (A) (A) (A) (A) (A)
       Virtual   (A) (A) (A) (A) (A) (A) (A) (A) (A) (A) (A) (A)
                 (A) (A) (A) (A) (A) (A) (A) (A) (A) (A) (A) (A)
                 (A) (A) (A) (A) (A) (A) (A) (A)
 Harris functional with IExCor= 1009 diagonalized for initial guess.
 ExpMin= 2.79D-02 ExpMax= 1.92D+01 ExpMxC= 1.92D+01 IAcc=3 IRadAn=         0 AccDes= 0.00D+00
 HarFok:  IExCor= 1009 AccDes= 0.00D+00 IRadAn=         0 IDoV= 1
 ScaDFX=  1.000000  1.000000  1.000000  1.000000
 Defaulting to unpruned grid for atomic number  79.
 Defaulting to unpruned grid for atomic number  79.
 Defaulting to unpruned grid for atomic number  79.
 Defaulting to unpruned grid for atomic number  79.
 FoFCou: FMM=F IPFlag=           0 FMFlag=      100000 FMFlg1=           0
         NFxFlg=           0 DoJE=T BraDBF=F KetDBF=T FulRan=T
         Omega=  0.000000  0.000000  1.000000  0.000000  0.000000 ICntrl=     500 IOpCl=  0
         NMat0=    1 NMatS0=    1 NMatT0=    0 NMatD0=    1 NMtDS0=    0 NMtDT0=    0
         I1Cent=           4 NGrid=           0.
 Petite list used in FoFCou.
 Requested convergence on RMS density matrix=1.00D-08 within 128 cycles.
 Requested convergence on MAX density matrix=1.00D-06.
 Requested convergence on             energy=1.00D-06.
 No special actions if energy rises.
 Keep R1 ints in memory in canonical form, NReq=6582683.
 Defaulting to unpruned grid for atomic number  79.
 Defaulting to unpruned grid for atomic number  79.
 Defaulting to unpruned grid for atomic number  79.
 Defaulting to unpruned grid for atomic number  79.
 Error on total polarization charges =  0.01050
 SCF Done:  E(RM062X) =  -195.484027231     A.U. after   16 cycles
             Convg  =    0.3421D-08             -V/T =  3.9713
 SMD-CDS (non-electrostatic) energy             (kcal/mol) =       1.99
 (included in total energy above)
   1 Symmetry operations used in ECPInt.
 ECPInt:  NShTT=     351 NPrTT=    1012 LenC2=     352 LenP2D=     963.
 LDataN:  DoStor=T MaxTD1= 7 Len=  274
 D1PCM: PCM CHGder 1st derivatives, ID1Alg=3 FixD1E=F DoIter=F DoCFld=F I1PDM=0.
 Calling FoFJK, ICntrl=      2127 FMM=F ISym2X=0 I1Cent= 0 IOpClX= 0 NMat=1 NMatS=1 NMatT=0.
 Defaulting to unpruned grid for atomic number  79.
 Defaulting to unpruned grid for atomic number  79.
 Defaulting to unpruned grid for atomic number  79.
 Defaulting to unpruned grid for atomic number  79.
 ***** Axes restored to original set *****
 -------------------------------------------------------------------
 Center     Atomic                   Forces (Hartrees/Bohr)
 Number     Number              X              Y              Z
 -------------------------------------------------------------------
      1       79           0.001103795    0.001094215   -0.001474689
      2       17          -0.000439081   -0.000001697    0.000286146
      3       17          -0.000506626    0.000342438    0.000497739
      4       17          -0.000711981   -0.000228178    0.000309345
      5       17           0.000635356   -0.000738842   -0.000539591
      6        1          -0.000081462   -0.000467937    0.000921050
 -------------------------------------------------------------------
 Cartesian Forces:  Max     0.001474689 RMS     0.000685406

 GradGradGradGradGradGradGradGradGradGradGradGradGradGradGradGradGradGrad
 Berny optimization.
 Using GEDIIS/GDIIS optimizer.
 Internal  Forces:  Max     0.003817074 RMS     0.001177555
 Search for a local minimum.
 Step number   5 out of a maximum of   31
 All quantities printed in internal units (Hartrees-Bohrs-Radians)
 Mixed Optimization -- RFO/linear search
 Update second derivatives using D2CorX and points    2    1    3    4    5
 DE= -6.69D-05 DEPred=-5.30D-05 R= 1.26D+00
 SS=  1.41D+00  RLast= 1.97D-01 DXNew= 4.2426D-01 5.9122D-01
 Trust test= 1.26D+00 RLast= 1.97D-01 DXMaxT set to 4.24D-01
 Use linear search instead of GDIIS.
     Eigenvalues ---    0.00136   0.00830   0.01186   0.01508   0.03094
     Eigenvalues ---    0.12450   0.14108   0.15491   0.16140   0.22534
     Eigenvalues ---    0.26495   3.718791000.000001000.000001000.00000
     Eigenvalues --- 1000.000001000.000001000.000001000.000001000.00000
     Eigenvalues --- 1000.00000
 RFO step:  Lambda=-3.69406339D-05 EMin= 1.36164891D-03
 Quartic linear search produced a step of  0.05277.
 Iteration  1 RMS(Cart)=  0.00486298 RMS(Int)=  0.00008364
 Iteration  2 RMS(Cart)=  0.00005422 RMS(Int)=  0.00006468
 Iteration  3 RMS(Cart)=  0.00000001 RMS(Int)=  0.00006468
 Variable       Old X    -DE/DX   Delta X   Delta X   Delta X     New X
                                 (Linear)    (Quad)   (Total)
    R1        4.55867  -0.00019   0.00014   0.00012   0.00027   4.55894
    R2        7.21362   0.00006  -0.00073   0.00483   0.00410   7.21773
    R3        4.55365   0.00017  -0.00012   0.00044   0.00033   4.55397
    R4        7.80478  -0.00039  -0.00039  -0.00030  -0.00069   7.80409
    R5        2.84368   0.00047  -0.00050  -0.00095  -0.00145   2.84223
    A1        1.84386   0.00093   0.00018  -0.00065  -0.00043   1.84344
    A2        3.07823  -0.00024   0.00029   0.00008   0.00014   3.07837
    A3        2.00355  -0.00053  -0.00032  -0.00228  -0.00256   2.00099
    A4        1.54345   0.00049  -0.00049   0.00436   0.00396   1.54740
    A5        1.24488  -0.00114  -0.00030  -0.00224  -0.00247   1.24241
    A6        0.55358  -0.00382   0.00006  -0.00110  -0.00105   0.55253
    A7        0.39027   0.00070  -0.00060  -0.00637  -0.00690   0.38337
    A8        1.11271   0.00021  -0.00011  -0.00265  -0.00271   1.11001
    A9        0.91660  -0.00314  -0.00107  -0.00747  -0.00852   0.90808
    D1       -0.58998   0.00017   0.00860   0.08530   0.09390  -0.49608
    D2        1.38738  -0.00011   0.00096   0.00177   0.00274   1.39013
    D3       -2.45856   0.00030  -0.00412   0.00022  -0.00390  -2.46246
    D4        3.07722  -0.00012   0.00050   0.00247   0.00305   3.08027
    D5       -2.15275  -0.00049  -0.00057   0.00319   0.00265  -2.15010
    D6        1.68984  -0.00001  -0.00046   0.00070   0.00031   1.69015
    D7        0.30581  -0.00079   0.00354   0.00297   0.00655   0.31236
         Item               Value     Threshold  Converged?
 Maximum Force            0.003817     0.000450     NO 
 RMS     Force            0.001178     0.000300     NO 
 Maximum Displacement     0.012436     0.001800     NO 
 RMS     Displacement     0.004858     0.001200     NO 
 Predicted change in Energy=-2.023517D-05
 GradGradGradGradGradGradGradGradGradGradGradGradGradGradGradGradGradGrad

                          Input orientation:                          
 ---------------------------------------------------------------------
 Center     Atomic      Atomic             Coordinates (Angstroms)
 Number     Number       Type             X           Y           Z
 ---------------------------------------------------------------------
      1         79           0        0.094264    1.702363   -0.891896
      2         17           0       -0.512362    1.856136   -3.221798
      3         17           0       -1.337022   -1.622662    0.326250
      4         17           0        0.697876    1.397121    1.421090
      5         17           0       -2.642512   -0.291327    1.472433
      6          1           0       -0.272014    0.244079   -0.929207
 ---------------------------------------------------------------------
                    Distance matrix (angstroms):
                    1          2          3          4          5
     1  Au   0.000000
     2  Cl   2.412485   0.000000
     3  Cl   3.819456   5.036938   0.000000
     4  Cl   2.409860   4.819936   3.802443   0.000000
     5  Cl   4.129745   5.584348   2.188718   3.743219   0.000000
     6  H    1.504042   2.812911   2.489003   2.791789   3.416694
                    6
     6  H    0.000000
 Stoichiometry    AuCl4H
 Framework group  C1[X(AuCl4H)]
 Deg. of freedom    12
 Full point group                 C1      NOp   1
 Largest Abelian subgroup         C1      NOp   1
 Largest concise Abelian subgroup C1      NOp   1
                         Standard orientation:                         
 ---------------------------------------------------------------------
 Center     Atomic      Atomic             Coordinates (Angstroms)
 Number     Number       Type             X           Y           Z
 ---------------------------------------------------------------------
      1         79           0        0.861974    0.251596   -0.020847
      2         17           0        2.303832   -1.678899   -0.140530
      3         17           0       -2.562652   -1.085163    1.015135
      4         17           0       -0.660896    2.105824    0.203038
      5         17           0       -3.077598   -0.476358   -1.023167
      6          1           0       -0.141642   -0.587939    0.720825
 ---------------------------------------------------------------------
 Rotational constants (GHZ):      1.2938014      0.5152128      0.4139827
 Standard basis: LANL2DZ (5D, 7F)
 There are    56 symmetry adapted basis functions of A   symmetry.
 Integral buffers will be    262144 words long.
 Raffenetti 2 integral format.
 Two-electron integral symmetry is turned on.
    56 basis functions,    95 primitive gaussians,    58 cartesian basis functions
    24 alpha electrons       24 beta electrons
       nuclear repulsion energy       146.5130925931 Hartrees.
 NAtoms=    6 NActive=    6 NUniq=    6 SFac= 7.50D-01 NAtFMM=   80 NAOKFM=F Big=F
 ------------------------------------------------------------------------------
 Polarizable Continuum Model (PCM)
 =================================
 Model                : PCM.
 Atomic radii         : SMD-Coulomb.
 Polarization charges : Total charges.
 Charge compensation  : None.
 Solution method      : Matrix inversion.
 Cavity type          : VdW (van der Waals Surface) (Alpha=1.000).
 Cavity algorithm     : GePol (No added spheres)
                        Default sphere list used, NSphG=    6.
                        Lebedev-Laikov grids with approx.  5.0 points / Ang**2.
                        Smoothing algorithm: Karplus/York (Gamma=1.0000).
                        Polarization charges: spherical gaussians, with
                                              point-specific exponents (IZeta= 3).
                        Self-potential: point-specific (ISelfS= 7).
                        Self-field    : sphere-specific E.n sum rule (ISelfD= 2).
 1st derivatives      : Analytical E(r).r(x)/FMM algorithm (CHGder, D1EAlg=3).
                        Cavity 1st derivative terms included.
 Solvent              : Water, Eps=  78.355300 Eps(inf)=   1.777849
 ------------------------------------------------------------------------------
 Spheres list:
 ISph  on   Nord    Re0     Alpha      Xe            Ye            Ze
    1  Au      1    1.660   1.000      0.861974      0.251596     -0.020847
    2  Cl      2    2.380   1.000      2.303832     -1.678899     -0.140530
    3  Cl      3    2.380   1.000     -2.562652     -1.085163      1.015135
    4  Cl      4    2.380   1.000     -0.660896      2.105824      0.203038
    5  Cl      5    2.380   1.000     -3.077598     -0.476358     -1.023167
    6   H      6    1.200   1.000     -0.141642     -0.587939      0.720825
 ------------------------------------------------------------------------------
 ------------------------------------------------------------------------------
 Atomic radii for non-electrostatic terms: SMD-CDS.
 ------------------------------------------------------------------------------
 Nuclear repulsion after PCM non-electrostatic terms =      146.5162547340 Hartrees.
 One-electron integrals computed using PRISM.
   1 Symmetry operations used in ECPInt.
 ECPInt:  NShTT=     351 NPrTT=    1012 LenC2=     352 LenP2D=     963.
 LDataN:  DoStor=T MaxTD1= 6 Len=  172
 NBasis=    56 RedAO= T  NBF=    56
 NBsUse=    56 1.00D-06 NBFU=    56
 Defaulting to unpruned grid for atomic number  79.
 Initial guess read from the read-write file.
 B after Tr=     0.000000    0.000000    0.000000
         Rot=    1.000000    0.000000    0.000000    0.000000 Ang=   0.00 deg.
 Initial guess orbital symmetries:
       Occupied  (A) (A) (A) (A) (A) (A) (A) (A) (A) (A) (A) (A)
                 (A) (A) (A) (A) (A) (A) (A) (A) (A) (A) (A) (A)
       Virtual   (A) (A) (A) (A) (A) (A) (A) (A) (A) (A) (A) (A)
                 (A) (A) (A) (A) (A) (A) (A) (A) (A) (A) (A) (A)
                 (A) (A) (A) (A) (A) (A) (A) (A)
 Requested convergence on RMS density matrix=1.00D-08 within 128 cycles.
 Requested convergence on MAX density matrix=1.00D-06.
 Requested convergence on             energy=1.00D-06.
 No special actions if energy rises.
 Keep R1 ints in memory in canonical form, NReq=6588600.
 Defaulting to unpruned grid for atomic number  79.
 Defaulting to unpruned grid for atomic number  79.
 Defaulting to unpruned grid for atomic number  79.
 Defaulting to unpruned grid for atomic number  79.
 Error on total polarization charges =  0.01052
 SCF Done:  E(RM062X) =  -195.484058714     A.U. after   10 cycles
             Convg  =    0.6257D-08             -V/T =  3.9712
 SMD-CDS (non-electrostatic) energy             (kcal/mol) =       1.98
 (included in total energy above)
   1 Symmetry operations used in ECPInt.
 ECPInt:  NShTT=     351 NPrTT=    1012 LenC2=     352 LenP2D=     963.
 LDataN:  DoStor=T MaxTD1= 7 Len=  274
 D1PCM: PCM CHGder 1st derivatives, ID1Alg=3 FixD1E=F DoIter=F DoCFld=F I1PDM=0.
 Calling FoFJK, ICntrl=      2127 FMM=F ISym2X=0 I1Cent= 0 IOpClX= 0 NMat=1 NMatS=1 NMatT=0.
 Defaulting to unpruned grid for atomic number  79.
 Defaulting to unpruned grid for atomic number  79.
 Defaulting to unpruned grid for atomic number  79.
 Defaulting to unpruned grid for atomic number  79.
 ***** Axes restored to original set *****
 -------------------------------------------------------------------
 Center     Atomic                   Forces (Hartrees/Bohr)
 Number     Number              X              Y              Z
 -------------------------------------------------------------------
      1       79           0.000971048    0.001197572   -0.001279514
      2       17          -0.000352356   -0.000046811    0.000336055
      3       17           0.000182228   -0.000289370   -0.000132712
      4       17          -0.000559879   -0.000091659    0.000327714
      5       17          -0.000080627   -0.000044352    0.000094120
      6        1          -0.000160414   -0.000725380    0.000654337
 -------------------------------------------------------------------
 Cartesian Forces:  Max     0.001279514 RMS     0.000568368

 GradGradGradGradGradGradGradGradGradGradGradGradGradGradGradGradGradGrad
 Berny optimization.
 Using GEDIIS/GDIIS optimizer.
 Internal  Forces:  Max     0.001023137 RMS     0.000403359
 Search for a local minimum.
 Step number   6 out of a maximum of   31
 All quantities printed in internal units (Hartrees-Bohrs-Radians)
 Mixed Optimization -- En-DIIS/RFO-DIIS
 Update second derivatives using D2CorX and points    2    1    3    4    5
[...]
 ECPInt:  NShTT=     351 NPrTT=    1012 LenC2=     352 LenP2D=    1012.
 LDataN:  DoStor=T MaxTD1= 8 Len=  415
 D2PCM: PCM CHGder 2nd derivatives, FixD1E=F FixD2E=F DoIter=F DoCFld=F I1PDM=0
 Calling FoFJK, ICntrl=    100127 FMM=F ISym2X=0 I1Cent= 0 IOpClX= 0 NMat=1 NMatS=1 NMatT=0.
 Defaulting to unpruned grid for atomic number  79.
 Defaulting to unpruned grid for atomic number  79.
 Defaulting to unpruned grid for atomic number  79.
 Defaulting to unpruned grid for atomic number  79.
 Full mass-weighted force constant matrix:
 Low frequencies ---  -10.5636    0.0002    0.0003    0.0003   12.9738   36.0629
 Low frequencies ---   38.3830   55.9943   59.1189
 Diagonal vibrational polarizability:
       64.9697971      31.8718889      60.7049081
 Harmonic frequencies (cm**-1), IR intensities (KM/Mole), Raman scattering
 activities (A**4/AMU), depolarization ratios for plane and unpolarized
 incident light, reduced masses (AMU), force constants (mDyne/A),
 and normal coordinates:
                     1                      2                      3
                     A                      A                      A
 Frequencies --    32.0255                43.7738                56.6671
 Red. masses --    35.4349                36.4153                34.9383
 Frc consts  --     0.0214                 0.0411                 0.0661
 IR Inten    --     0.2553                 1.1214                 0.3154
  Atom  AN      X      Y      Z        X      Y      Z        X      Y      Z
     1  79     0.09  -0.02  -0.01     0.09   0.11   0.03    -0.06   0.02  -0.03
     2  17     0.34   0.13   0.22    -0.49  -0.26  -0.03    -0.27  -0.14   0.29
     3  17    -0.08  -0.18  -0.20     0.00  -0.24  -0.09     0.51  -0.47  -0.16
     4  17     0.01  -0.08  -0.11     0.33   0.33   0.05    -0.04   0.07  -0.19
     5  17    -0.79   0.23   0.12    -0.33  -0.46  -0.07     0.16   0.42   0.21
     6   1     0.04  -0.07  -0.14    -0.06   0.22  -0.05    -0.13   0.07  -0.07
                     4                      5                      6
                     A                      A                      A
 Frequencies --    86.0298               101.8953               123.0249
 Red. masses --    43.3833                35.8126                41.5557
 Frc consts  --     0.1892                 0.2191                 0.3706
 IR Inten    --    16.1235                 1.9904                17.6003
  Atom  AN      X      Y      Z        X      Y      Z        X      Y      Z
     1  79     0.07   0.02   0.22    -0.06  -0.04   0.01     0.18   0.11  -0.09
     2  17    -0.17  -0.07  -0.58    -0.01  -0.01   0.05    -0.33  -0.29   0.23
     3  17     0.14   0.08  -0.04     0.71   0.50  -0.20    -0.12   0.10   0.03
     4  17    -0.29  -0.18  -0.64    -0.08  -0.06   0.23    -0.56  -0.48   0.26
     5  17    -0.10   0.06   0.02    -0.26  -0.19  -0.14    -0.02   0.05  -0.01
     6   1     0.04  -0.08   0.05    -0.04  -0.02   0.05     0.22   0.03  -0.10
                     7                      8                      9
                     A                      A                      A
 Frequencies --   293.9754               331.7367               491.3782
 Red. masses --    34.9485                38.7741                 1.5556
 Frc consts  --     1.7795                 2.5141                 0.2213
 IR Inten    --     0.3831               100.3952                 8.1932
  Atom  AN      X      Y      Z        X      Y      Z        X      Y      Z
     1  79     0.00  -0.01   0.00    -0.13   0.18   0.02     0.00   0.00   0.00
     2  17    -0.42   0.60   0.06     0.32  -0.50  -0.04     0.01   0.00   0.00
     3  17     0.01   0.01   0.00     0.01   0.00  -0.01    -0.02   0.03  -0.08
     4  17     0.41  -0.54  -0.04     0.42  -0.52  -0.06     0.00   0.00   0.00
     5  17     0.00   0.00   0.00     0.00  -0.01   0.00     0.03  -0.03   0.09
     6   1    -0.03  -0.01  -0.02     0.19   0.03   0.31    -0.48  -0.13  -0.86
                    10                     11                     12
                     A                      A                      A
 Frequencies --   500.8863               771.5712              2331.9463
 Red. masses --     2.7057                 1.0147                 1.0128
 Frc consts  --     0.3999                 0.3559                 3.2449
 IR Inten    --     6.3852               198.2405               433.5808
  Atom  AN      X      Y      Z        X      Y      Z        X      Y      Z
     1  79     0.00   0.00   0.00     0.00   0.00   0.00     0.00   0.00   0.00
     2  17     0.00   0.00   0.00    -0.01   0.00   0.00     0.00   0.00   0.00
     3  17     0.04  -0.04   0.15     0.00   0.00   0.00     0.00   0.00   0.00
     4  17     0.00  -0.01   0.00     0.00   0.01   0.00     0.00   0.00   0.00
     5  17    -0.04   0.04  -0.14     0.00   0.00   0.00     0.00   0.00   0.00
     6   1    -0.46  -0.13  -0.85     0.55  -0.82  -0.18    -0.68  -0.56   0.46

 -------------------
 - Thermochemistry -
 -------------------
 Temperature   298.150 Kelvin.  Pressure   1.00000 Atm.
 Atom     1 has atomic number 79 and mass 196.96660
 Atom     2 has atomic number 17 and mass  34.96885
 Atom     3 has atomic number 17 and mass  34.96885
 Atom     4 has atomic number 17 and mass  34.96885
 Atom     5 has atomic number 17 and mass  34.96885
 Atom     6 has atomic number  1 and mass   1.00783
 Molecular mass:   337.84984 amu.
 Principal axes and moments of inertia in atomic units:
                           1         2         3
     Eigenvalues --  1411.659663506.678624386.85571
           X            0.99993  -0.01148   0.00026
           Y            0.01148   0.99993  -0.00134
           Z           -0.00025   0.00134   1.00000
 This molecule is an asymmetric top.
 Rotational symmetry number  1.
 Warning -- assumption of classical behavior for rotation
           may cause significant error
 Rotational temperatures (Kelvin)      0.06136     0.02470     0.01974
 Rotational constants (GHZ):           1.27845     0.51466     0.41140
 Zero-point vibrational energy      30893.0 (Joules/Mol)
                                    7.38361 (Kcal/Mol)
 Warning -- explicit consideration of  10 degrees of freedom as
           vibrations may cause significant error
 Vibrational temperatures:     46.08    62.98    81.53   123.78   146.60
          (Kelvin)            177.01   422.96   477.29   706.98   720.66
                             1110.12  3355.15
 
 Zero-point correction=                           0.011767 (Hartree/Particle)
 Thermal correction to Energy=                    0.020676
 Thermal correction to Enthalpy=                  0.021620
 Thermal correction to Gibbs Free Energy=        -0.028097
 Sum of electronic and zero-point Energies=           -195.472368
 Sum of electronic and thermal Energies=              -195.463458
 Sum of electronic and thermal Enthalpies=            -195.462514
 Sum of electronic and thermal Free Energies=         -195.512231
 
                     E (Thermal)             CV                S
                      KCal/Mol        Cal/Mol-Kelvin    Cal/Mol-Kelvin
 Total                   12.975             24.252            104.638
 Electronic               0.000              0.000              0.000
 Translational            0.889              2.981             43.347
 Rotational               0.889              2.981             31.452
 Vibrational             11.197             18.291             29.839
 Vibration     1          0.594              1.983              5.700
 Vibration     2          0.595              1.980              5.081
 Vibration     3          0.596              1.975              4.570
 Vibration     4          0.601              1.959              3.748
 Vibration     5          0.604              1.948              3.418
 Vibration     6          0.610              1.930              3.052
 Vibration     7          0.689              1.685              1.451
 Vibration     8          0.714              1.612              1.252
 Vibration     9          0.847              1.269              0.680
 Vibration    10          0.856              1.248              0.656
                       Q            Log10(Q)             Ln(Q)
 Total Bot       0.838595D+13         12.923552         29.757578
 Total V=0       0.216655D+19         18.335770         42.219670
 Vib (Bot)       0.205956D-01         -1.686225         -3.882676
 Vib (Bot)    1  0.646419D+01          0.810514          1.866278
 Vib (Bot)    2  0.472520D+01          0.674420          1.552910
 Vib (Bot)    3  0.364551D+01          0.561758          1.293496
 Vib (Bot)    4  0.239155D+01          0.378679          0.871940
 Vib (Bot)    5  0.201336D+01          0.303921          0.699804
 Vib (Bot)    6  0.165993D+01          0.220090          0.506775
 Vib (Bot)    7  0.649091D+00         -0.187695         -0.432183
 Vib (Bot)    8  0.562634D+00         -0.249774         -0.575126
 Vib (Bot)    9  0.337024D+00         -0.472339         -1.087600
 Vib (Bot)   10  0.327866D+00         -0.484303         -1.115149
 Vib (V=0)       0.532099D+04          3.725993          8.579415
 Vib (V=0)    1  0.698350D+01          0.844073          1.943550
 Vib (V=0)    2  0.525158D+01          0.720290          1.658529
 Vib (V=0)    3  0.417964D+01          0.621139          1.430225
 Vib (V=0)    4  0.294325D+01          0.468828          1.079516
 Vib (V=0)    5  0.257452D+01          0.410695          0.945661
 Vib (V=0)    6  0.223360D+01          0.349005          0.803614
 Vib (V=0)    7  0.131934D+01          0.120357          0.277132
 Vib (V=0)    8  0.125270D+01          0.097847          0.225301
 Vib (V=0)    9  0.110298D+01          0.042568          0.098016
 Vib (V=0)   10  0.109791D+01          0.040567          0.093408
 Electronic      0.100000D+01          0.000000          0.000000
 Translational   0.244085D+09          8.387541         19.313026
 Rotational      0.166815D+07          6.222236         14.327228
 ***** Axes restored to original set *****
 -------------------------------------------------------------------
 Center     Atomic                   Forces (Hartrees/Bohr)
 Number     Number              X              Y              Z
 -------------------------------------------------------------------
      1       79          -0.000046008    0.000045022    0.000010614
      2       17          -0.000027594    0.000019400    0.000012154
      3       17           0.000097612   -0.000036838   -0.000018657
      4       17          -0.000061439    0.000056257    0.000020416
      5       17           0.000018516   -0.000103803   -0.000026722
      6        1           0.000018913    0.000019962    0.000002195
 -------------------------------------------------------------------
 Cartesian Forces:  Max     0.000103803 RMS     0.000045169

 GradGradGradGradGradGradGradGradGradGradGradGradGradGradGradGradGradGrad
 Berny optimization.
 Internal  Forces:  Max     0.000004255 RMS     0.000001600
 Search for a local minimum.
 Step number   1 out of a maximum of    2
 All quantities printed in internal units (Hartrees-Bohrs-Radians)
 Second derivative matrix not updated -- analytic derivatives used.
     Eigenvalues ---    0.00043   0.00160   0.00468   0.00720   0.01420
     Eigenvalues ---    0.01662   0.04607   0.08435   0.10916   0.11699
     Eigenvalues ---    0.20639   4.792381000.000001000.000001000.00000
     Eigenvalues --- 1000.000001000.000001000.000001000.000001000.00000
     Eigenvalues --- 1000.00000
 Angle between quadratic step and forces=  73.98 degrees.
 Linear search not attempted -- first point.
 Iteration  1 RMS(Cart)=  0.00011531 RMS(Int)=  0.00000008
 Iteration  2 RMS(Cart)=  0.00000001 RMS(Int)=  0.00000001
 Variable       Old X    -DE/DX   Delta X   Delta X   Delta X     New X
                                 (Linear)    (Quad)   (Total)
    R1        4.55184   0.00000   0.00000  -0.00005  -0.00005   4.55179
    R2        7.23931   0.00000   0.00000   0.00019   0.00019   7.23950
    R3        4.55860   0.00000   0.00000   0.00001   0.00001   4.55861
    R4        7.87708   0.00000   0.00000   0.00045   0.00045   7.87753
    R5        2.84592   0.00000   0.00000   0.00001   0.00001   2.84593
    A1        1.81495   0.00000   0.00000  -0.00008  -0.00008   1.81487
    A2        3.06025   0.00000   0.00000  -0.00005  -0.00005   3.06020
    A3        1.97142   0.00000   0.00000  -0.00012  -0.00012   1.97130
    A4        1.54268   0.00000   0.00000  -0.00005  -0.00005   1.54263
    A5        1.24533   0.00000   0.00000   0.00002   0.00002   1.24535
    A6        0.54804   0.00000   0.00000  -0.00003  -0.00003   0.54801
    A7        0.35785   0.00000   0.00000  -0.00005  -0.00005   0.35780
    A8        1.10251   0.00000   0.00000   0.00005   0.00005   1.10256
    A9        0.87999   0.00000   0.00000  -0.00008  -0.00008   0.87990
    D1       -0.02360   0.00000   0.00000   0.00051   0.00051  -0.02310
    D2        1.37965   0.00000   0.00000   0.00003   0.00003   1.37968
    D3       -2.44283   0.00000   0.00000  -0.00001  -0.00001  -2.44284
    D4        3.09180   0.00000   0.00000   0.00001   0.00001   3.09181
    D5       -2.12875   0.00000   0.00000   0.00008   0.00008  -2.12868
    D6        1.71215   0.00000   0.00000  -0.00002  -0.00002   1.71213
    D7        0.31407   0.00000   0.00000   0.00009   0.00009   0.31416
         Item               Value     Threshold  Converged?
 Maximum Force            0.000004     0.000450     YES
 RMS     Force            0.000002     0.000300     YES
 Maximum Displacement     0.000281     0.001800     YES
 RMS     Displacement     0.000115     0.001200     YES
 Predicted change in Energy=-7.502387D-10
 Optimization completed.
    -- Stationary point found.
                           ----------------------------
                           !   Optimized Parameters   !
                           ! (Angstroms and Degrees)  !
 --------------------------                            --------------------------
 ! Name  Definition              Value          Derivative Info.                !
 --------------------------------------------------------------------------------
 ! R1    R(1,2)                  2.4087         -DE/DX =    0.0                 !
 ! R2    R(1,3)                  3.8309         -DE/DX =    0.0                 !
 ! R3    R(1,4)                  2.4123         -DE/DX =    0.0                 !
 ! R4    R(1,5)                  4.1684         -DE/DX =    0.0                 !
 ! R5    R(1,6)                  1.506          -DE/DX =    0.0                 !
 ! A1    A(2,1,3)              103.9888         -DE/DX =    0.0                 !
 ! A2    A(2,1,4)              175.3394         -DE/DX =    0.0                 !
 ! A3    A(2,1,5)              112.954          -DE/DX =    0.0                 !
 ! A4    A(2,1,6)               88.3891         -DE/DX =    0.0                 !
 ! A5    A(3,1,4)               71.3519         -DE/DX =    0.0                 !
 ! A6    A(3,1,5)               31.4003         -DE/DX =    0.0                 !
 ! A7    A(3,1,6)               20.503          -DE/DX =    0.0                 !
 ! A8    A(4,1,5)               63.1694         -DE/DX =    0.0                 !
 ! A9    A(5,1,6)               50.4195         -DE/DX =    0.0                 !
 ! D1    D(2,1,4,3)             -1.3524         -DE/DX =    0.0                 !
 ! D2    D(2,1,5,3)             79.0484         -DE/DX =    0.0                 !
 ! D3    D(2,1,6,3)           -139.9636         -DE/DX =    0.0                 !
 ! D4    D(2,1,5,4)            177.1471         -DE/DX =    0.0                 !
 ! D5    D(2,1,6,5)           -121.9684         -DE/DX =    0.0                 !
 ! D6    D(3,1,5,4)             98.0988         -DE/DX =    0.0                 !
 ! D7    D(3,1,6,5)             17.9952         -DE/DX =    0.0                 !
 --------------------------------------------------------------------------------
 GradGradGradGradGradGradGradGradGradGradGradGradGradGradGradGradGradGrad

 1|1|UNPC-DESKTOP-319GPER|Freq|RM062X|LANL2DZ|Au1Cl4H1|SAGAD|24-Jan-202
 1|0||#N Geom=AllCheck Guess=TCheck SCRF=Check GenChk RM062X/LANL2DZ Fr
 eq||chloroauric acid||0,1|Au,0.1272271425,1.7081703282,-0.8998370647|C
 l,-0.5319652538,1.8349697827,-3.2131414357|Cl,-1.3468857088,-1.6171466
 378,0.302195704|Cl,0.6979520887,1.4067599637,1.4245207952|Cl,-2.647602
 4988,-0.3027197958,1.4733354927|H,-0.2704946716,0.2556765898,-0.910202
 7213||Version=IA32W-G09RevA.02|State=1-A|HF=-195.4841347|RMSD=2.223e-0
 09|RMSF=4.517e-005|ZeroPoint=0.0117665|Thermal=0.0206762|Dipole=-0.050
 0973,0.0035571,0.11397|DipoleDeriv=0.9839757,-0.1289248,0.2819778,-0.1
 888282,0.484144,-0.0401708,0.2651957,-0.0931037,1.9744633,-0.5348623,0
 .0147629,-0.1688877,0.0435914,-0.484141,0.1555809,-0.1912701,0.047027,
 -1.1982877,-0.0792212,-0.0840602,0.0565821,-0.0967036,-0.1247216,0.051
 5589,0.0995816,0.072394,-0.0744403,-0.5438906,0.0151144,-0.2109945,-0.
 0092594,-0.4456229,-0.0108198,-0.1781032,0.0733482,-1.1753513,0.032768
 2,0.0166688,0.0048497,-0.0269291,0.0171855,0.0336055,-0.0237871,0.0008
 161,0.0410044,0.1412302,0.1664388,0.0364726,0.2781289,0.553156,-0.1897
 547,0.028383,-0.1004817,0.4326117|Polar=62.5818413,-12.7532698,63.6053
 836,2.15987,3.7729199,127.7057884|PG=C01 [X(Au1Cl4H1)]|NImag=0||0.0516
 8515,0.05250580,0.21641266,0.05419081,-0.01395553,0.21033163,-0.014805
 75,0.00101505,-0.02929883,0.01150611,-0.00003548,-0.00781043,-0.000457
 26,-0.00071010,0.00613177,-0.02835242,0.00546081,-0.09471649,0.0303748
 8,-0.00583117,0.10071844,-0.00095389,-0.00104534,0.00195442,-0.0000013
 7,-0.00003532,0.00006835,0.06415808,-0.00158551,-0.00345016,0.00185328
 ,-0.00003944,-0.00013847,0.00013315,-0.05363836,0.06548341,0.00129934,
 0.00050183,-0.00174736,0.00004838,0.00018289,-0.00019387,-0.05396869,0
 .05107171,0.05071192,-0.01387771,-0.00009254,-0.01993358,0.00285610,0.
 00058229,-0.00218269,-0.00052803,0.00042801,0.00049222,0.01367690,0.00
 010067,-0.01741841,0.01497037,-0.00046973,0.00306134,-0.00107086,-0.00
 068346,-0.00045544,-0.00001899,0.00065022,0.01521083,-0.02383204,0.008
 88219,-0.10066996,-0.00080615,0.00227819,-0.00250432,-0.00104707,-0.00
 050620,0.00082300,0.02514696,-0.01016373,0.10535586,-0.00024080,-0.000
 49400,-0.00039332,0.00001889,0.00000680,-0.00004322,-0.06050936,0.0549
 4760,0.05168814,0.00049703,0.00073286,0.00044809,0.06054509,-0.0002449
 8,-0.00031067,-0.00059118,0.00003493,-0.00000679,0.00006405,0.05631072
 ,-0.05918723,-0.05222568,-0.00020530,-0.00001628,0.00031677,-0.0557649
 3,0.05936451,-0.00007340,0.00022575,-0.00008446,-0.00001270,-0.0000252
 7,0.00009229,0.05214699,-0.05145840,-0.04885859,-0.00046166,-0.0003010
 5,0.00009226,-0.05197947,0.05248244,0.04907785,-0.02180700,-0.05188897
 ,-0.00651950,0.00042602,0.00019181,0.00013509,-0.00216543,-0.00011230,
 0.00044060,-0.00262428,-0.00033056,0.00009021,-0.00031085,-0.00013044,
 0.00038023,0.02648154,-0.05074051,-0.18742299,-0.00181969,0.00016928,-
 0.00123742,0.00124402,-0.00090825,-0.00225212,0.00048824,-0.00136268,-
 0.00038203,-0.00080722,0.00057168,0.00015646,-0.00092347,0.05227047,0.
 19113810,-0.00323230,-0.00111505,-0.01311336,-0.00030559,0.00385262,-0
 .00339605,0.00084599,-0.00109353,-0.00073510,-0.00306125,-0.00341574,-
 0.00309685,0.00027977,-0.00004640,-0.00031935,0.00547337,0.00181811,0.
 02066070||0.00004601,-0.00004502,-0.00001061,0.00002759,-0.00001940,-0
 .00001215,-0.00009761,0.00003684,0.00001866,0.00006144,-0.00005626,-0.
 00002042,-0.00001852,0.00010380,0.00002672,-0.00001891,-0.00001996,-0.
 00000219|||@


 SEEN ON A WALL AT THE UNIVERSITY OF ILLINOIS AT CHICAGO CIRCLE:

 TO DO IS TO BE  -- SOCRATES
 TO BE IS TO DO  -- SARTRE
 OO BE DO BE DO  -- SINATRA
 Job cpu time:  0 days  0 hours  0 minutes 28.0 seconds.
 File lengths (MBytes):  RWF=     76 Int=      0 D2E=      0 Chk=      3 Scr=      1
 Normal termination of Gaussian 09 at Sun Jan 24 04:14:24 2021.
