 Entering Link 1 = C:\G09W\l1.exe PID=      9128.
  
 Copyright (c) 1988,1990,1992,1993,1995,1998,2003,2009, Gaussian, Inc.
                  All Rights Reserved.
  
 This is part of the Gaussian(R) 09 program.  It is based on
 the Gaussian(R) 03 system (copyright 2003, Gaussian, Inc.),
 the Gaussian(R) 98 system (copyright 1998, Gaussian, Inc.),
 the Gaussian(R) 94 system (copyright 1995, Gaussian, Inc.),
 the Gaussian 92(TM) system (copyright 1992, Gaussian, Inc.),
 the Gaussian 90(TM) system (copyright 1990, Gaussian, Inc.),
 the Gaussian 88(TM) system (copyright 1988, Gaussian, Inc.),
 the Gaussian 86(TM) system (copyright 1986, Carnegie Mellon
 University), and the Gaussian 82(TM) system (copyright 1983,
 Carnegie Mellon University). Gaussian is a federally registered
 trademark of Gaussian, Inc.
  
 This software contains proprietary and confidential information,
 including trade secrets, belonging to Gaussian, Inc.
  
 This software is provided under written license and may be
 used, copied, transmitted, or stored only in accord with that
 written license.
  
 The following legend is applicable only to US Government
 contracts under FAR:
  
                    RESTRICTED RIGHTS LEGEND
  
 Use, reproduction and disclosure by the US Government is
 subject to restrictions as set forth in subparagraphs (a)
 and (c) of the Commercial Computer Software - Restricted
 Rights clause in FAR 52.227-19.
  
 Gaussian, Inc.
 340 Quinnipiac St., Bldg. 40, Wallingford CT 06492
  
  
 ---------------------------------------------------------------
 Warning -- This program may not be used in any manner that
 competes with the business of Gaussian, Inc. or will provide
 assistance to any competitor of Gaussian, Inc.  The licensee
 of this program is prohibited from giving any competitor of
 Gaussian, Inc. access to this program.  By using this program,
 the user acknowledges that Gaussian, Inc. is engaged in the
 business of creating and licensing software in the field of
 computational chemistry and represents and warrants to the
 licensee that it is not a competitor of Gaussian, Inc. and that
 it will not use this program in any manner prohibited above.
 ---------------------------------------------------------------
  

 Cite this work as:
 Gaussian 09, Revision A.02,
 M. J. Frisch, G. W. Trucks, H. B. Schlegel, G. E. Scuseria, 
 M. A. Robb, J. R. Cheeseman, G. Scalmani, V. Barone, B. Mennucci, 
 G. A. Petersson, H. Nakatsuji, M. Caricato, X. Li, H. P. Hratchian, 
 A. F. Izmaylov, J. Bloino, G. Zheng, J. L. Sonnenberg, M. Hada, 
 M. Ehara, K. Toyota, R. Fukuda, J. Hasegawa, M. Ishida, T. Nakajima, 
 Y. Honda, O. Kitao, H. Nakai, T. Vreven, J. A. Montgomery, Jr., 
 J. E. Peralta, F. Ogliaro, M. Bearpark, J. J. Heyd, E. Brothers, 
 K. N. Kudin, V. N. Staroverov, R. Kobayashi, J. Normand, 
 K. Raghavachari, A. Rendell, J. C. Burant, S. S. Iyengar, J. Tomasi, 
 M. Cossi, N. Rega, J. M. Millam, M. Klene, J. E. Knox, J. B. Cross, 
 V. Bakken, C. Adamo, J. Jaramillo, R. Gomperts, R. E. Stratmann, 
 O. Yazyev, A. J. Austin, R. Cammi, C. Pomelli, J. W. Ochterski, 
 R. L. Martin, K. Morokuma, V. G. Zakrzewski, G. A. Voth, 
 P. Salvador, J. J. Dannenberg, S. Dapprich, A. D. Daniels, 
 O. Farkas, J. B. Foresman, J. V. Ortiz, J. Cioslowski, 
 and D. J. Fox, Gaussian, Inc., Wallingford CT, 2009.
 
 ******************************************
 Gaussian 09:  IA32W-G09RevA.02 11-Jun-2009
                24-Jan-2021 
 ******************************************
 %chk=D:\Documents\rayGit\FQ\quimicaComputacional\proyecto\chloauricAcidPka\chloa
 uricAcid.chk
 %mem=1500MB
 %nprocshared=4
 Will use up to    4 processors via shared memory.
 ---------------------------------
 # opt freq lanl2dz scrf=smd m062x
 ---------------------------------
 1/14=-1,18=20,19=15,26=3,38=1/1,3;
 2/9=110,12=2,17=6,18=5,40=1/2;
 3/5=6,6=3,11=2,16=1,25=1,30=1,70=32201,71=1,72=1,74=-55/1,2,3;
 4//1;
 5/5=2,38=5/2;
 6/7=2,8=2,9=2,10=2,28=1/1;
 7//1,2,3,16;
 1/14=-1,18=20,19=15/3(2);
 2/9=110/2;
 99//99;
 2/9=110/2;
 3/5=6,6=3,11=2,16=1,25=1,30=1,70=32205,71=1,74=-55/1,2,3;
 4/5=5,16=3/1;
 5/5=2,38=5/2;
 7//1,2,3,16;
 1/14=-1,18=20,19=15/3(-5);
 2/9=110/2;
 6/7=2,8=2,9=2,10=2,19=2,28=1/1;
 99/9=1/99;
 ----------------
 chloroauric acid
 ----------------
 Symbolic Z-matrix:
 Charge =  0 Multiplicity = 1
 Au                   -0.72209   0.49861  -0.38875 
 Cl                    0.27121   1.94144  -1.92514 
 Cl                    0.27077  -1.55354   0.09273 
 Cl                    0.49614   1.49159   1.33137 
 Cl                   -2.70824   1.10792   0.66615 
 H                    -1.57956  -0.20031  -1.59948 
 

 GradGradGradGradGradGradGradGradGradGradGradGradGradGradGradGradGradGrad
 Berny optimization.
 Initialization pass.
                           ----------------------------
                           !    Initial Parameters    !
                           ! (Angstroms and Degrees)  !
 --------------------------                            --------------------------
 ! Name  Definition              Value          Derivative Info.                !
 --------------------------------------------------------------------------------
 ! R1    R(1,2)                  2.33           estimate D2E/DX2                !
 ! R2    R(1,3)                  2.33           estimate D2E/DX2                !
 ! R3    R(1,4)                  2.33           estimate D2E/DX2                !
 ! R4    R(1,5)                  2.33           estimate D2E/DX2                !
 ! R5    R(1,6)                  1.64           estimate D2E/DX2                !
 ! A1    A(2,1,3)              119.9998         estimate D2E/DX2                !
 ! A2    A(2,1,4)               90.0001         estimate D2E/DX2                !
 ! A3    A(2,1,5)              119.9999         estimate D2E/DX2                !
 ! A4    A(2,1,6)               90.0001         estimate D2E/DX2                !
 ! A5    A(3,1,4)               90.0            estimate D2E/DX2                !
 ! A6    A(3,1,5)              120.0002         estimate D2E/DX2                !
 ! A7    A(3,1,6)               90.0            estimate D2E/DX2                !
 ! A8    A(4,1,5)               89.9999         estimate D2E/DX2                !
 ! A9    A(5,1,6)               89.9999         estimate D2E/DX2                !
 ! D1    D(2,1,4,3)           -119.9998         estimate D2E/DX2                !
 ! D2    D(2,1,5,3)            180.0            estimate D2E/DX2                !
 ! D3    D(2,1,6,3)            119.9998         estimate D2E/DX2                !
 ! D4    D(2,1,5,4)            -90.0001         estimate D2E/DX2                !
 ! D5    D(2,1,6,5)           -119.9999         estimate D2E/DX2                !
 ! D6    D(3,1,5,4)             89.9999         estimate D2E/DX2                !
 ! D7    D(3,1,6,5)            120.0002         estimate D2E/DX2                !
 --------------------------------------------------------------------------------
 Trust Radius=3.00D-01 FncErr=1.00D-07 GrdErr=1.00D-06
 Number of steps in this run=  31 maximum allowed number of steps= 100.
 GradGradGradGradGradGradGradGradGradGradGradGradGradGradGradGradGradGrad

                          Input orientation:                          
 ---------------------------------------------------------------------
 Center     Atomic      Atomic             Coordinates (Angstroms)
 Number     Number       Type             X           Y           Z
 ---------------------------------------------------------------------
      1         79           0       -0.722089    0.498609   -0.388754
      2         17           0        0.271209    1.941443   -1.925142
      3         17           0        0.270775   -1.553536    0.092727
      4         17           0        0.496138    1.491586    1.331368
      5         17           0       -2.708245    1.107923    0.666149
      6          1           0       -1.579557   -0.200314   -1.599478
 ---------------------------------------------------------------------
                    Distance matrix (angstroms):
                    1          2          3          4          5
     1  Au   0.000000
     2  Cl   2.330000   0.000000
     3  Cl   2.330000   4.035675   0.000000
     4  Cl   2.330000   3.295121   3.295116   0.000000
     5  Cl   2.330000   4.035677   4.035683   3.295115   0.000000
     6  H    1.640000   2.849301   2.849297   3.970000   2.849296
                    6
     6  H    0.000000
 Stoichiometry    AuCl4H
 Framework group  C1[X(AuCl4H)]
 Deg. of freedom    12
 Full point group                 C1      NOp   1
 Largest Abelian subgroup         C1      NOp   1
 Largest concise Abelian subgroup C1      NOp   1
                         Standard orientation:                         
 ---------------------------------------------------------------------
 Center     Atomic      Atomic             Coordinates (Angstroms)
 Number     Number       Type             X           Y           Z
 ---------------------------------------------------------------------
      1         79           0        0.000000    0.000000    0.256554
      2         17           0       -0.220355    2.319557    0.256545
      3         17           0       -1.898622   -1.350605    0.256557
      4         17           0        0.000004   -0.000013   -2.073446
      5         17           0        2.118974   -0.968942    0.256560
      6          1           0       -0.000001    0.000003    1.896554
 ---------------------------------------------------------------------
 Rotational constants (GHZ):      1.1023509      1.1023477      0.8873659
 Standard basis: LANL2DZ (5D, 7F)
 There are    56 symmetry adapted basis functions of A   symmetry.
 Integral buffers will be    262144 words long.
 Raffenetti 2 integral format.
 Two-electron integral symmetry is turned on.
    56 basis functions,    95 primitive gaussians,    58 cartesian basis functions
    24 alpha electrons       24 beta electrons
       nuclear repulsion energy       174.6716423454 Hartrees.
 NAtoms=    6 NActive=    6 NUniq=    6 SFac= 7.50D-01 NAtFMM=   80 NAOKFM=F Big=F
 ------------------------------------------------------------------------------
 Polarizable Continuum Model (PCM)
 =================================
 Model                : PCM.
 Atomic radii         : SMD-Coulomb.
 Polarization charges : Total charges.
 Charge compensation  : None.
 Solution method      : Matrix inversion.
 Cavity type          : VdW (van der Waals Surface) (Alpha=1.000).
 Cavity algorithm     : GePol (No added spheres)
                        Default sphere list used, NSphG=    6.
                        Lebedev-Laikov grids with approx.  5.0 points / Ang**2.
                        Smoothing algorithm: Karplus/York (Gamma=1.0000).
                        Polarization charges: spherical gaussians, with
                                              point-specific exponents (IZeta= 3).
                        Self-potential: point-specific (ISelfS= 7).
                        Self-field    : sphere-specific E.n sum rule (ISelfD= 2).
 1st derivatives      : Analytical E(r).r(x)/FMM algorithm (CHGder, D1EAlg=3).
                        Cavity 1st derivative terms included.
 Solvent              : Water, Eps=  78.355300 Eps(inf)=   1.777849
 ------------------------------------------------------------------------------
 Spheres list:
 ISph  on   Nord    Re0     Alpha      Xe            Ye            Ze
    1  Au      1    1.660   1.000      0.000000      0.000000      0.256554
    2  Cl      2    2.380   1.000     -0.220355      2.319557      0.256545
    3  Cl      3    2.380   1.000     -1.898622     -1.350605      0.256557
    4  Cl      4    2.380   1.000      0.000004     -0.000013     -2.073446
    5  Cl      5    2.380   1.000      2.118974     -0.968942      0.256560
    6   H      6    1.200   1.000     -0.000001      0.000003      1.896554
 ------------------------------------------------------------------------------
 ------------------------------------------------------------------------------
 Atomic radii for non-electrostatic terms: SMD-CDS.
 ------------------------------------------------------------------------------
 Nuclear repulsion after PCM non-electrostatic terms =      174.6754214409 Hartrees.
 One-electron integrals computed using PRISM.
   1 Symmetry operations used in ECPInt.
 ECPInt:  NShTT=     351 NPrTT=    1012 LenC2=     352 LenP2D=     978.
 LDataN:  DoStor=T MaxTD1= 6 Len=  172
 NBasis=    56 RedAO= T  NBF=    56
 NBsUse=    56 1.00D-06 NBFU=    56
 Defaulting to unpruned grid for atomic number  79.
 Harris functional with IExCor= 1009 diagonalized for initial guess.
 ExpMin= 2.79D-02 ExpMax= 1.92D+01 ExpMxC= 1.92D+01 IAcc=3 IRadAn=         0 AccDes= 0.00D+00
 HarFok:  IExCor= 1009 AccDes= 0.00D+00 IRadAn=         0 IDoV= 1
 ScaDFX=  1.000000  1.000000  1.000000  1.000000
 Defaulting to unpruned grid for atomic number  79.
 Defaulting to unpruned grid for atomic number  79.
 Defaulting to unpruned grid for atomic number  79.
 Defaulting to unpruned grid for atomic number  79.
 FoFCou: FMM=F IPFlag=           0 FMFlag=      100000 FMFlg1=           0
         NFxFlg=           0 DoJE=T BraDBF=F KetDBF=T FulRan=T
         Omega=  0.000000  0.000000  1.000000  0.000000  0.000000 ICntrl=     500 IOpCl=  0
         NMat0=    1 NMatS0=    1 NMatT0=    0 NMatD0=    1 NMtDS0=    0 NMtDT0=    0
         I1Cent=           4 NGrid=           0.
 Petite list used in FoFCou.
 Initial guess orbital symmetries:
       Occupied  (A) (A) (A) (A) (A) (A) (A) (A) (A) (A) (A) (A)
                 (A) (A) (A) (A) (A) (A) (A) (A) (A) (A) (A) (A)
       Virtual   (A) (A) (A) (A) (A) (A) (A) (A) (A) (A) (A) (A)
                 (A) (A) (A) (A) (A) (A) (A) (A) (A) (A) (A) (A)
                 (A) (A) (A) (A) (A) (A) (A) (A)
 The electronic state of the initial guess is 1-A.
 Requested convergence on RMS density matrix=1.00D-08 within 128 cycles.
 Requested convergence on MAX density matrix=1.00D-06.
 Requested convergence on             energy=1.00D-06.
 No special actions if energy rises.
 Keep R1 ints in memory in canonical form, NReq=6276437.
 Defaulting to unpruned grid for atomic number  79.
 Defaulting to unpruned grid for atomic number  79.
 Defaulting to unpruned grid for atomic number  79.
 Defaulting to unpruned grid for atomic number  79.
 EnCoef did    17 forward-backward iterations
 Error on total polarization charges =  0.00610
 SCF Done:  E(RM062X) =  -195.345860927     A.U. after   45 cycles
             Convg  =    0.2747D-08             -V/T =  3.9655
 SMD-CDS (non-electrostatic) energy             (kcal/mol) =       2.37
 (included in total energy above)

 **********************************************************************

            Population analysis using the SCF density.

 **********************************************************************

 Orbital symmetries:
       Occupied  (A) (A) (A) (A) (A) (A) (A) (A) (A) (A) (A) (A)
                 (A) (A) (A) (A) (A) (A) (A) (A) (A) (A) (A) (A)
       Virtual   (A) (A) (A) (A) (A) (A) (A) (A) (A) (A) (A) (A)
                 (A) (A) (A) (A) (A) (A) (A) (A) (A) (A) (A) (A)
                 (A) (A) (A) (A) (A) (A) (A) (A)
 The electronic state is 1-A.
 Alpha  occ. eigenvalues --   -4.54491  -2.64834  -2.64400  -2.64130  -0.93099
 Alpha  occ. eigenvalues --   -0.92179  -0.90898  -0.89499  -0.63050  -0.60694
 Alpha  occ. eigenvalues --   -0.60096  -0.59844  -0.59107  -0.52275  -0.44593
 Alpha  occ. eigenvalues --   -0.43726  -0.43682  -0.41061  -0.40324  -0.40303
 Alpha  occ. eigenvalues --   -0.38607  -0.37815  -0.37572  -0.36966
 Alpha virt. eigenvalues --   -0.26599  -0.14190   0.03360   0.03562   0.03601
 Alpha virt. eigenvalues --    0.08986   0.17569   0.17721   0.27318   0.35656
 Alpha virt. eigenvalues --    0.35858   0.48644   0.48965   0.53958   0.68273
 Alpha virt. eigenvalues --    0.68664   0.69575   0.72676   0.76673   0.77226
 Alpha virt. eigenvalues --    0.78747   0.78947   0.79424   0.84640   0.85607
 Alpha virt. eigenvalues --    0.87284   1.00220   3.11332   8.06264   8.98671
 Alpha virt. eigenvalues --    8.99359  10.55944
          Condensed to atoms (all electrons):
              1          2          3          4          5          6
     1  Au  18.218405   0.233792   0.193807   0.216029   0.192686   0.226064
     2  Cl   0.233792   6.866133  -0.002888  -0.032841  -0.002650   0.001982
     3  Cl   0.193807  -0.002888   6.803271  -0.016836   0.003299   0.001383
     4  Cl   0.216029  -0.032841  -0.016836   6.944102  -0.016487  -0.003302
     5  Cl   0.192686  -0.002650   0.003299  -0.016487   6.799579   0.001426
     6  H    0.226064   0.001982   0.001383  -0.003302   0.001426   0.377584
 Mulliken atomic charges:
              1
     1  Au  -0.280783
     2  Cl  -0.063527
     3  Cl   0.017964
     4  Cl  -0.090665
     5  Cl   0.022148
     6  H    0.394862
 Sum of Mulliken atomic charges =   0.00000
 Mulliken charges with hydrogens summed into heavy atoms:
              1
     1  Au   0.114079
     2  Cl  -0.063527
     3  Cl   0.017964
     4  Cl  -0.090665
     5  Cl   0.022148
 Sum of Mulliken charges with hydrogens summed into heavy atoms =   0.00000
 Electronic spatial extent (au):  <R**2>=            706.7483
 Charge=              0.0000 electrons
 Dipole moment (field-independent basis, Debye):
    X=              0.0843    Y=             -0.6664    Z=              4.4342  Tot=              4.4848
 Quadrupole moment (field-independent basis, Debye-Ang):
   XX=            -73.4301   YY=            -80.1322   ZZ=            -74.9685
   XY=              0.5140   XZ=              0.0244   YZ=             -0.3925
 Traceless Quadrupole moment (field-independent basis, Debye-Ang):
   XX=              2.7469   YY=             -3.9553   ZZ=              1.2084
   XY=              0.5140   XZ=              0.0244   YZ=             -0.3925
 Octapole moment (field-independent basis, Debye-Ang**2):
  XXX=              0.0481  YYY=             -9.0629  ZZZ=             46.5088  XYY=              1.0443
  XXY=              0.4957  XXZ=              7.5987  XZZ=              0.0504  YZZ=             -0.3696
  YYZ=              6.5973  XYZ=              0.0752
 Hexadecapole moment (field-independent basis, Debye-Ang**3):
 XXXX=           -626.1233 YYYY=           -708.1262 ZZZZ=           -449.6791 XXXY=              2.2069
 XXXZ=              0.0920 YYYX=              4.1431 YYYZ=             -4.1155 ZZZX=             -0.0117
 ZZZY=             -0.7433 XXYY=           -219.1318 XXZZ=           -185.3002 YYZZ=           -192.7874
 XXYZ=             -0.3388 YYXZ=              0.3249 ZZXY=              0.5862
 N-N= 1.746754214409D+02 E-N=-7.479044490699D+02  KE= 6.587368564360D+01
   1 Symmetry operations used in ECPInt.
 ECPInt:  NShTT=     351 NPrTT=    1012 LenC2=     352 LenP2D=     978.
 LDataN:  DoStor=T MaxTD1= 7 Len=  274
 D1PCM: PCM CHGder 1st derivatives, ID1Alg=3 FixD1E=F DoIter=F DoCFld=F I1PDM=0.
 Calling FoFJK, ICntrl=      2127 FMM=F ISym2X=0 I1Cent= 0 IOpClX= 0 NMat=1 NMatS=1 NMatT=0.
 Defaulting to unpruned grid for atomic number  79.
 Defaulting to unpruned grid for atomic number  79.
 Defaulting to unpruned grid for atomic number  79.
 Defaulting to unpruned grid for atomic number  79.
 ***** Axes restored to original set *****
 -------------------------------------------------------------------
 Center     Atomic                   Forces (Hartrees/Bohr)
 Number     Number              X              Y              Z
 -------------------------------------------------------------------
      1       79          -0.023362163   -0.015628947   -0.051156039
      2       17           0.012851262    0.020861603   -0.029479196
      3       17           0.000266993   -0.029041894    0.012122322
      4       17           0.024846135    0.019533502    0.038539385
      5       17          -0.024699466   -0.004532497    0.016249217
      6        1           0.010097238    0.008808232    0.013724312
 -------------------------------------------------------------------
 Cartesian Forces:  Max     0.051156039 RMS     0.023110298

 GradGradGradGradGradGradGradGradGradGradGradGradGradGradGradGradGradGrad
 Berny optimization.
 Internal  Forces:  Max     0.049766949 RMS     0.018234385
 Search for a local minimum.
 Step number   1 out of a maximum of   31
 All quantities printed in internal units (Hartrees-Bohrs-Radians)
 Mixed Optimization -- RFO/linear search
 Second derivative matrix not updated -- first step.
     Eigenvalues ---    0.05297   0.09519   0.10846   0.12615   0.16000
     Eigenvalues ---    0.16000   0.17446   0.19143   0.19143   0.19143
     Eigenvalues ---    0.19143   0.250001000.000001000.000001000.00000
     Eigenvalues --- 1000.000001000.000001000.000001000.000001000.00000
     Eigenvalues --- 1000.00000
 RFO step:  Lambda=-3.41181769D-02 EMin= 5.29748687D-02
 Linear search not attempted -- first point.
 Maximum step size (   0.300) exceeded in Quadratic search.
    -- Step size scaled by   0.714
 Iteration  1 RMS(Cart)=  0.07821954 RMS(Int)=  0.00167437
 Iteration  2 RMS(Cart)=  0.00207085 RMS(Int)=  0.00038487
 Iteration  3 RMS(Cart)=  0.00000195 RMS(Int)=  0.00038487
 Iteration  4 RMS(Cart)=  0.00000000 RMS(Int)=  0.00038487
 Variable       Old X    -DE/DX   Delta X   Delta X   Delta X     New X
                                 (Linear)    (Quad)   (Total)
    R1        4.40306   0.03783   0.00000   0.11976   0.11976   4.52283
    R2        4.40306   0.02821   0.00000   0.08929   0.08929   4.49235
    R3        4.40306   0.04977   0.00000   0.15754   0.15754   4.56060
    R4        4.40306   0.02722   0.00000   0.08616   0.08616   4.48922
    R5        3.09915  -0.01917   0.00000  -0.06560  -0.06560   3.03355
    A1        2.09439   0.00752   0.00000   0.04150   0.04077   2.13516
    A2        1.57080   0.00690   0.00000   0.03618   0.03547   1.60626
    A3        2.09439   0.01005   0.00000   0.04076   0.04011   2.13450
    A4        1.57080  -0.00365   0.00000  -0.02361  -0.02384   1.54696
    A5        1.57080   0.00206   0.00000   0.01196   0.01261   1.58341
    A6        2.09440  -0.01756   0.00000  -0.08226  -0.08272   2.01168
    A7        1.57080  -0.00127   0.00000  -0.01487  -0.01509   1.55570
    A8        1.57080  -0.00219   0.00000   0.00731   0.00722   1.57801
    A9        1.57080  -0.00184   0.00000  -0.01697  -0.01719   1.55361
    D1       -2.09439  -0.00752   0.00000  -0.04150  -0.04175  -2.13614
    D2       -3.14159  -0.00781   0.00000  -0.06404  -0.06388   3.07771
    D3        2.09439   0.00752   0.00000   0.04150   0.04145   2.13584
    D4       -1.57080  -0.00670   0.00000  -0.04601  -0.04653  -1.61733
    D5       -2.09439  -0.01005   0.00000  -0.04076  -0.04086  -2.13526
    D6        1.57079   0.00111   0.00000   0.01803   0.01735   1.58815
    D7        2.09440  -0.01756   0.00000  -0.08226  -0.08231   2.01209
         Item               Value     Threshold  Converged?
 Maximum Force            0.049767     0.000450     NO 
 RMS     Force            0.018234     0.000300     NO 
 Maximum Displacement     0.191620     0.001800     NO 
 RMS     Displacement     0.079016     0.001200     NO 
 Predicted change in Energy=-1.720529D-02
 GradGradGradGradGradGradGradGradGradGradGradGradGradGradGradGradGradGrad

                          Input orientation:                          
 ---------------------------------------------------------------------
 Center     Atomic      Atomic             Coordinates (Angstroms)
 Number     Number       Type             X           Y           Z
 ---------------------------------------------------------------------
      1         79           0       -0.706958    0.517242   -0.406652
      2         17           0        0.282706    1.974902   -2.026543
      3         17           0        0.211746   -1.611724    0.117569
      4         17           0        0.538690    1.532156    1.394085
      5         17           0       -2.749163    1.037894    0.689604
      6          1           0       -1.548790   -0.164759   -1.591191
 ---------------------------------------------------------------------
                    Distance matrix (angstroms):
                    1          2          3          4          5
     1  Au   0.000000
     2  Cl   2.393377   0.000000
     3  Cl   2.377251   4.179251   0.000000
     4  Cl   2.413368   3.458648   3.408866   0.000000
     5  Cl   2.375596   4.177040   4.014309   3.398612   0.000000
     6  H    1.605284   2.849923   2.848343   4.018577   2.844168
                    6
     6  H    0.000000
 Stoichiometry    AuCl4H
 Framework group  C1[X(AuCl4H)]
 Deg. of freedom    12
 Full point group                 C1      NOp   1
 Largest Abelian subgroup         C1      NOp   1
 Largest concise Abelian subgroup C1      NOp   1
                         Standard orientation:                         
 ---------------------------------------------------------------------
 Center     Atomic      Atomic             Coordinates (Angstroms)
 Number     Number       Type             X           Y           Z
 ---------------------------------------------------------------------
      1         79           0        0.024922   -0.002568   -0.250571
      2         17           0        2.418218   -0.015410   -0.265642
      3         17           0       -1.257702   -2.003544   -0.298441
      4         17           0       -0.045343    0.020921    2.161659
      5         17           0       -1.234108    2.010614   -0.324004
      6          1           0        0.053030   -0.010974   -1.855587
 ---------------------------------------------------------------------
 Rotational constants (GHZ):      1.0750010      1.0075001      0.8493500
 Standard basis: LANL2DZ (5D, 7F)
 There are    56 symmetry adapted basis functions of A   symmetry.
 Integral buffers will be    262144 words long.
 Raffenetti 2 integral format.
 Two-electron integral symmetry is turned on.
    56 basis functions,    95 primitive gaussians,    58 cartesian basis functions
    24 alpha electrons       24 beta electrons
       nuclear repulsion energy       170.4937381668 Hartrees.
 NAtoms=    6 NActive=    6 NUniq=    6 SFac= 7.50D-01 NAtFMM=   80 NAOKFM=F Big=F
 ------------------------------------------------------------------------------
 Polarizable Continuum Model (PCM)
 =================================
 Model                : PCM.
 Atomic radii         : SMD-Coulomb.
 Polarization charges : Total charges.
 Charge compensation  : None.
 Solution method      : Matrix inversion.
 Cavity type          : VdW (van der Waals Surface) (Alpha=1.000).
 Cavity algorithm     : GePol (No added spheres)
                        Default sphere list used, NSphG=    6.
                        Lebedev-Laikov grids with approx.  5.0 points / Ang**2.
                        Smoothing algorithm: Karplus/York (Gamma=1.0000).
                        Polarization charges: spherical gaussians, with
                                              point-specific exponents (IZeta= 3).
                        Self-potential: point-specific (ISelfS= 7).
                        Self-field    : sphere-specific E.n sum rule (ISelfD= 2).
 1st derivatives      : Analytical E(r).r(x)/FMM algorithm (CHGder, D1EAlg=3).
                        Cavity 1st derivative terms included.
 Solvent              : Water, Eps=  78.355300 Eps(inf)=   1.777849
 ------------------------------------------------------------------------------
 Spheres list:
 ISph  on   Nord    Re0     Alpha      Xe            Ye            Ze
    1  Au      1    1.660   1.000      0.024922     -0.002568     -0.250571
    2  Cl      2    2.380   1.000      2.418218     -0.015410     -0.265642
    3  Cl      3    2.380   1.000     -1.257702     -2.003544     -0.298441
    4  Cl      4    2.380   1.000     -0.045343      0.020921      2.161659
    5  Cl      5    2.380   1.000     -1.234108      2.010614     -0.324004
    6   H      6    1.200   1.000      0.053030     -0.010974     -1.855587
 ------------------------------------------------------------------------------
 ------------------------------------------------------------------------------
 Atomic radii for non-electrostatic terms: SMD-CDS.
 ------------------------------------------------------------------------------
 Nuclear repulsion after PCM non-electrostatic terms =      170.4975626896 Hartrees.
 One-electron integrals computed using PRISM.
   1 Symmetry operations used in ECPInt.
 ECPInt:  NShTT=     351 NPrTT=    1012 LenC2=     352 LenP2D=     978.
 LDataN:  DoStor=T MaxTD1= 6 Len=  172
 NBasis=    56 RedAO= T  NBF=    56
 NBsUse=    56 1.00D-06 NBFU=    56
 Defaulting to unpruned grid for atomic number  79.
 Initial guess read from the read-write file.
 B after Tr=     0.000000    0.000000    0.000000
         Rot=    1.000000    0.000000    0.000000    0.000000 Ang=   0.00 deg.
 Initial guess orbital symmetries:
       Occupied  (A) (A) (A) (A) (A) (A) (A) (A) (A) (A) (A) (A)
                 (A) (A) (A) (A) (A) (A) (A) (A) (A) (A) (A) (A)
       Virtual   (A) (A) (A) (A) (A) (A) (A) (A) (A) (A) (A) (A)
                 (A) (A) (A) (A) (A) (A) (A) (A) (A) (A) (A) (A)
                 (A) (A) (A) (A) (A) (A) (A) (A)
 Harris functional with IExCor= 1009 diagonalized for initial guess.
 ExpMin= 2.79D-02 ExpMax= 1.92D+01 ExpMxC= 1.92D+01 IAcc=3 IRadAn=         0 AccDes= 0.00D+00
 HarFok:  IExCor= 1009 AccDes= 0.00D+00 IRadAn=         0 IDoV= 1
 ScaDFX=  1.000000  1.000000  1.000000  1.000000
 Defaulting to unpruned grid for atomic number  79.
 Defaulting to unpruned grid for atomic number  79.
 Defaulting to unpruned grid for atomic number  79.
 Defaulting to unpruned grid for atomic number  79.
 FoFCou: FMM=F IPFlag=           0 FMFlag=      100000 FMFlg1=           0
         NFxFlg=           0 DoJE=T BraDBF=F KetDBF=T FulRan=T
         Omega=  0.000000  0.000000  1.000000  0.000000  0.000000 ICntrl=     500 IOpCl=  0
         NMat0=    1 NMatS0=    1 NMatT0=    0 NMatD0=    1 NMtDS0=    0 NMtDT0=    0
         I1Cent=           4 NGrid=           0.
 Petite list used in FoFCou.
 Requested convergence on RMS density matrix=1.00D-08 within 128 cycles.
 Requested convergence on MAX density matrix=1.00D-06.
 Requested convergence on             energy=1.00D-06.
 No special actions if energy rises.
 Keep R1 ints in memory in canonical form, NReq=6370866.
 Defaulting to unpruned grid for atomic number  79.
 Defaulting to unpruned grid for atomic number  79.
 Defaulting to unpruned grid for atomic number  79.
 Defaulting to unpruned grid for atomic number  79.
 Error on total polarization charges =  0.00593
 SCF Done:  E(RM062X) =  -195.355939411     A.U. after   43 cycles
             Convg  =    0.2854D-08             -V/T =  3.9699
 SMD-CDS (non-electrostatic) energy             (kcal/mol) =       2.40
 (included in total energy above)
   1 Symmetry operations used in ECPInt.
 ECPInt:  NShTT=     351 NPrTT=    1012 LenC2=     352 LenP2D=     978.
 LDataN:  DoStor=T MaxTD1= 7 Len=  274
 D1PCM: PCM CHGder 1st derivatives, ID1Alg=3 FixD1E=F DoIter=F DoCFld=F I1PDM=0.
 Calling FoFJK, ICntrl=      2127 FMM=F ISym2X=0 I1Cent= 0 IOpClX= 0 NMat=1 NMatS=1 NMatT=0.
 Defaulting to unpruned grid for atomic number  79.
 Defaulting to unpruned grid for atomic number  79.
 Defaulting to unpruned grid for atomic number  79.
 Defaulting to unpruned grid for atomic number  79.
 ***** Axes restored to original set *****
 -------------------------------------------------------------------
 Center     Atomic                   Forces (Hartrees/Bohr)
 Number     Number              X              Y              Z
 -------------------------------------------------------------------
      1       79          -0.015815549   -0.012415687   -0.023433676
      2       17           0.001253301    0.002241451   -0.006420504
      3       17           0.014715834   -0.019359321   -0.002744178
      4       17           0.013228129    0.010812435    0.018253810
      5       17          -0.021326645    0.012433559    0.004102127
      6        1           0.007944929    0.006287563    0.010242422
 -------------------------------------------------------------------
 Cartesian Forces:  Max     0.023433676 RMS     0.013036292

 GradGradGradGradGradGradGradGradGradGradGradGradGradGradGradGradGradGrad
 Berny optimization.
 Using GEDIIS/GDIIS optimizer.
 Internal  Forces:  Max     0.024996614 RMS     0.010990234
 Search for a local minimum.
 Step number   2 out of a maximum of   31
 All quantities printed in internal units (Hartrees-Bohrs-Radians)
 Mixed Optimization -- RFO/linear search
 Update second derivatives using D2CorX and points    1    2
 DE= -1.01D-02 DEPred=-1.72D-02 R= 5.86D-01
 SS=  1.41D+00  RLast= 3.00D-01 DXNew= 5.0454D-01 8.9995D-01
 Trust test= 5.86D-01 RLast= 3.00D-01 DXMaxT set to 5.05D-01
 Use linear search instead of GDIIS.
     Eigenvalues ---    0.05162   0.09390   0.10219   0.11053   0.15971
     Eigenvalues ---    0.16005   0.17341   0.17948   0.19143   0.19143
     Eigenvalues ---    0.24785   0.336141000.000001000.000001000.00000
     Eigenvalues --- 1000.000001000.000001000.000001000.000001000.00000
     Eigenvalues --- 1000.00000
 RFO step:  Lambda=-2.16743278D-02 EMin= 5.16242427D-02
 Skip linear search -- no minimum in search direction.
 Iteration  1 RMS(Cart)=  0.10868035 RMS(Int)=  0.01004969
 Iteration  2 RMS(Cart)=  0.00987834 RMS(Int)=  0.00091899
 Iteration  3 RMS(Cart)=  0.00001117 RMS(Int)=  0.00091896
 Iteration  4 RMS(Cart)=  0.00000001 RMS(Int)=  0.00091896
 Variable       Old X    -DE/DX   Delta X   Delta X   Delta X     New X
                                 (Linear)    (Quad)   (Total)
    R1        4.52283   0.00624   0.00000   0.10904   0.10904   4.63187
    R2        4.49235   0.02241   0.00000   0.18731   0.18731   4.67967
    R3        4.56060   0.02500   0.00000   0.24368   0.24368   4.80428
    R4        4.48922   0.02295   0.00000   0.18868   0.18868   4.67791
    R5        3.03355  -0.01440   0.00000  -0.13194  -0.13194   2.90160
    A1        2.13516  -0.00561   0.00000  -0.04202  -0.04366   2.09150
    A2        1.60626   0.00072   0.00000   0.03483   0.03610   1.64237
    A3        2.13450  -0.00806   0.00000  -0.04108  -0.04262   2.09187
    A4        1.54696  -0.00311   0.00000  -0.04254  -0.04229   1.50467
    A5        1.58341   0.00131   0.00000   0.02896   0.02688   1.61028
    A6        2.01168   0.01339   0.00000   0.07711   0.07571   2.08739
    A7        1.55570  -0.00080   0.00000  -0.02586  -0.02563   1.53007
    A8        1.57801   0.00254   0.00000   0.02883   0.02843   1.60644
    A9        1.55361  -0.00036   0.00000  -0.02290  -0.02268   1.53092
    D1       -2.13614   0.00552   0.00000   0.03933   0.03944  -2.09670
    D2        3.07771  -0.00502   0.00000  -0.10479  -0.10501   2.97270
    D3        2.13584  -0.00548   0.00000  -0.03968  -0.03948   2.09635
    D4       -1.61733  -0.00216   0.00000  -0.05797  -0.05663  -1.67395
    D5       -2.13526   0.00794   0.00000   0.03871   0.03861  -2.09664
    D6        1.58815   0.00285   0.00000   0.04682   0.04838   1.63653
    D7        2.01209   0.01342   0.00000   0.07839   0.07810   2.09019
         Item               Value     Threshold  Converged?
 Maximum Force            0.024997     0.000450     NO 
 RMS     Force            0.010990     0.000300     NO 
 Maximum Displacement     0.242508     0.001800     NO 
 RMS     Displacement     0.114097     0.001200     NO 
 Predicted change in Energy=-1.302204D-02
 GradGradGradGradGradGradGradGradGradGradGradGradGradGradGradGradGradGrad

                          Input orientation:                          
 ---------------------------------------------------------------------
 Center     Atomic      Atomic             Coordinates (Angstroms)
 Number     Number       Type             X           Y           Z
 ---------------------------------------------------------------------
      1         79           0       -0.713864    0.507153   -0.389354
      2         17           0        0.252859    1.959763   -2.110736
      3         17           0        0.279791   -1.719330    0.044052
      4         17           0        0.599722    1.574314    1.507758
      5         17           0       -2.877492    1.104644    0.654452
      6          1           0       -1.512785   -0.140835   -1.529302
 ---------------------------------------------------------------------
                    Distance matrix (angstroms):
                    1          2          3          4          5
     1  Au   0.000000
     2  Cl   2.451078   0.000000
     3  Cl   2.476373   4.263750   0.000000
     4  Cl   2.542317   3.655459   3.618409   0.000000
     5  Cl   2.475442   4.263402   4.279703   3.611058   0.000000
     6  H    1.535462   2.805009   2.860143   4.077764   2.860494
                    6
     6  H    0.000000
 Stoichiometry    AuCl4H
 Framework group  C1[X(AuCl4H)]
 Deg. of freedom    12
 Full point group                 C1      NOp   1
 Largest Abelian subgroup         C1      NOp   1
 Largest concise Abelian subgroup C1      NOp   1
                         Standard orientation:                         
 ---------------------------------------------------------------------
 Center     Atomic      Atomic             Coordinates (Angstroms)
 Number     Number       Type             X           Y           Z
 ---------------------------------------------------------------------
      1         79           0        0.001573    0.019883   -0.239366
      2         17           0        0.001221    2.470889   -0.258133
      3         17           0        2.143031   -1.213070   -0.401856
      4         17           0       -0.015476   -0.142501    2.297702
      5         17           0       -2.136628   -1.214165   -0.421119
      6          1           0        0.009222    0.109607   -1.772186
 ---------------------------------------------------------------------
 Rotational constants (GHZ):      0.9527769      0.9475212      0.7926907
 Standard basis: LANL2DZ (5D, 7F)
 There are    56 symmetry adapted basis functions of A   symmetry.
 Integral buffers will be    262144 words long.
 Raffenetti 2 integral format.
 Two-electron integral symmetry is turned on.
    56 basis functions,    95 primitive gaussians,    58 cartesian basis functions
    24 alpha electrons       24 beta electrons
       nuclear repulsion energy       164.2794746196 Hartrees.
 NAtoms=    6 NActive=    6 NUniq=    6 SFac= 7.50D-01 NAtFMM=   80 NAOKFM=F Big=F
 ------------------------------------------------------------------------------
 Polarizable Continuum Model (PCM)
 =================================
 Model                : PCM.
 Atomic radii         : SMD-Coulomb.
 Polarization charges : Total charges.
 Charge compensation  : None.
 Solution method      : Matrix inversion.
 Cavity type          : VdW (van der Waals Surface) (Alpha=1.000).
 Cavity algorithm     : GePol (No added spheres)
                        Default sphere list used, NSphG=    6.
                        Lebedev-Laikov grids with approx.  5.0 points / Ang**2.
                        Smoothing algorithm: Karplus/York (Gamma=1.0000).
                        Polarization charges: spherical gaussians, with
                                              point-specific exponents (IZeta= 3).
                        Self-potential: point-specific (ISelfS= 7).
                        Self-field    : sphere-specific E.n sum rule (ISelfD= 2).
 1st derivatives      : Analytical E(r).r(x)/FMM algorithm (CHGder, D1EAlg=3).
                        Cavity 1st derivative terms included.
 Solvent              : Water, Eps=  78.355300 Eps(inf)=   1.777849
 ------------------------------------------------------------------------------
 Spheres list:
 ISph  on   Nord    Re0     Alpha      Xe            Ye            Ze
    1  Au      1    1.660   1.000      0.001573      0.019883     -0.239366
    2  Cl      2    2.380   1.000      0.001221      2.470889     -0.258133
    3  Cl      3    2.380   1.000      2.143031     -1.213070     -0.401856
    4  Cl      4    2.380   1.000     -0.015476     -0.142501      2.297702
    5  Cl      5    2.380   1.000     -2.136628     -1.214165     -0.421119
    6   H      6    1.200   1.000      0.009222      0.109607     -1.772186
 ------------------------------------------------------------------------------
 ------------------------------------------------------------------------------
 Atomic radii for non-electrostatic terms: SMD-CDS.
 ------------------------------------------------------------------------------
 Nuclear repulsion after PCM non-electrostatic terms =      164.2833229730 Hartrees.
 One-electron integrals computed using PRISM.
   1 Symmetry operations used in ECPInt.
 ECPInt:  NShTT=     351 NPrTT=    1012 LenC2=     352 LenP2D=     978.
 LDataN:  DoStor=T MaxTD1= 6 Len=  172
 NBasis=    56 RedAO= T  NBF=    56
 NBsUse=    56 1.00D-06 NBFU=    56
 Defaulting to unpruned grid for atomic number  79.
 Initial guess read from the read-write file.
 B after Tr=     0.000000    0.000000    0.000000
         Rot=    1.000000    0.000000    0.000000    0.000000 Ang=   0.00 deg.
 Initial guess orbital symmetries:
       Occupied  (A) (A) (A) (A) (A) (A) (A) (A) (A) (A) (A) (A)
                 (A) (A) (A) (A) (A) (A) (A) (A) (A) (A) (A) (A)
       Virtual   (A) (A) (A) (A) (A) (A) (A) (A) (A) (A) (A) (A)
                 (A) (A) (A) (A) (A) (A) (A) (A) (A) (A) (A) (A)
                 (A) (A) (A) (A) (A) (A) (A) (A)
 Harris functional with IExCor= 1009 diagonalized for initial guess.
 ExpMin= 2.79D-02 ExpMax= 1.92D+01 ExpMxC= 1.92D+01 IAcc=3 IRadAn=         0 AccDes= 0.00D+00
 HarFok:  IExCor= 1009 AccDes= 0.00D+00 IRadAn=         0 IDoV= 1
 ScaDFX=  1.000000  1.000000  1.000000  1.000000
 Defaulting to unpruned grid for atomic number  79.
 Defaulting to unpruned grid for atomic number  79.
 Defaulting to unpruned grid for atomic number  79.
 Defaulting to unpruned grid for atomic number  79.
 FoFCou: FMM=F IPFlag=           0 FMFlag=      100000 FMFlg1=           0
         NFxFlg=           0 DoJE=T BraDBF=F KetDBF=T FulRan=T
         Omega=  0.000000  0.000000  1.000000  0.000000  0.000000 ICntrl=     500 IOpCl=  0
         NMat0=    1 NMatS0=    1 NMatT0=    0 NMatD0=    1 NMtDS0=    0 NMtDT0=    0
         I1Cent=           4 NGrid=           0.
 Petite list used in FoFCou.
 Requested convergence on RMS density matrix=1.00D-08 within 128 cycles.
 Requested convergence on MAX density matrix=1.00D-06.
 Requested convergence on             energy=1.00D-06.
 No special actions if energy rises.
 Keep R1 ints in memory in canonical form, NReq=6522429.
 Defaulting to unpruned grid for atomic number  79.
 Defaulting to unpruned grid for atomic number  79.
 Defaulting to unpruned grid for atomic number  79.
 Defaulting to unpruned grid for atomic number  79.
 Error on total polarization charges =  0.00563
 SCF Done:  E(RM062X) =  -195.367734156     A.U. after   35 cycles
             Convg  =    0.3399D-08             -V/T =  3.9756
 SMD-CDS (non-electrostatic) energy             (kcal/mol) =       2.41
 (included in total energy above)
   1 Symmetry operations used in ECPInt.
 ECPInt:  NShTT=     351 NPrTT=    1012 LenC2=     352 LenP2D=     978.
 LDataN:  DoStor=T MaxTD1= 7 Len=  274
 D1PCM: PCM CHGder 1st derivatives, ID1Alg=3 FixD1E=F DoIter=F DoCFld=F I1PDM=0.
 Calling FoFJK, ICntrl=      2127 FMM=F ISym2X=0 I1Cent= 0 IOpClX= 0 NMat=1 NMatS=1 NMatT=0.
 Defaulting to unpruned grid for atomic number  79.
 Defaulting to unpruned grid for atomic number  79.
 Defaulting to unpruned grid for atomic number  79.
 Defaulting to unpruned grid for atomic number  79.
 ***** Axes restored to original set *****
 -------------------------------------------------------------------
 Center     Atomic                   Forces (Hartrees/Bohr)
 Number     Number              X              Y              Z
 -------------------------------------------------------------------
      1       79           0.004018292    0.004726200   -0.002498835
      2       17           0.001029796    0.001395193   -0.002018345
      3       17          -0.007492020    0.003036542    0.004217521
      4       17          -0.001513804   -0.001299544    0.000438717
      5       17           0.004213969   -0.007772326    0.001596864
      6        1          -0.000256233   -0.000086065   -0.001735921
 -------------------------------------------------------------------
 Cartesian Forces:  Max     0.007772326 RMS     0.003519177

 GradGradGradGradGradGradGradGradGradGradGradGradGradGradGradGradGradGrad
 Berny optimization.
 Using GEDIIS/GDIIS optimizer.
 Internal  Forces:  Max     0.011100404 RMS     0.004704396
 Search for a local minimum.
 Step number   3 out of a maximum of   31
 All quantities printed in internal units (Hartrees-Bohrs-Radians)
 Mixed Optimization -- RFO/linear search
 Update second derivatives using D2CorX and points    2    3
 DE= -1.18D-02 DEPred=-1.30D-02 R= 9.06D-01
 SS=  1.41D+00  RLast= 4.49D-01 DXNew= 8.4853D-01 1.3480D+00
 Trust test= 9.06D-01 RLast= 4.49D-01 DXMaxT set to 8.49D-01
 Use linear search instead of GDIIS.
     Eigenvalues ---    0.05440   0.09840   0.10932   0.12281   0.15928
     Eigenvalues ---    0.16014   0.17544   0.17966   0.19143   0.19160
     Eigenvalues ---    0.24747   0.375381000.000001000.000001000.00000
     Eigenvalues --- 1000.000001000.000001000.000001000.000001000.00000
     Eigenvalues --- 1000.00000
 RFO step:  Lambda=-8.88689570D-04 EMin= 5.43956368D-02
 Quartic linear search produced a step of -0.10261.
 Iteration  1 RMS(Cart)=  0.02156777 RMS(Int)=  0.00023254
 Iteration  2 RMS(Cart)=  0.00020542 RMS(Int)=  0.00010696
 Iteration  3 RMS(Cart)=  0.00000001 RMS(Int)=  0.00010696
 Variable       Old X    -DE/DX   Delta X   Delta X   Delta X     New X
                                 (Linear)    (Quad)   (Total)
    R1        4.63187   0.00263  -0.01119   0.00851  -0.00268   4.62919
    R2        4.67967  -0.00500  -0.01922   0.01020  -0.00902   4.67064
    R3        4.80428  -0.00100  -0.02501   0.02471  -0.00029   4.80399
    R4        4.67791  -0.00486  -0.01936   0.01236  -0.00701   4.67090
    R5        2.90160   0.00146   0.01354  -0.01599  -0.00245   2.89915
    A1        2.09150   0.00436   0.00448   0.00722   0.01176   2.10327
    A2        1.64237   0.00186  -0.00370   0.01789   0.01394   1.65631
    A3        2.09187   0.00663   0.00437   0.01237   0.01680   2.10868
    A4        1.50467  -0.00048   0.00434  -0.01534  -0.01101   1.49366
    A5        1.61028   0.00010  -0.00276   0.00397   0.00146   1.61175
    A6        2.08739  -0.01105  -0.00777  -0.02425  -0.03191   2.05548
    A7        1.53007   0.00013   0.00263  -0.00656  -0.00394   1.52612
    A8        1.60644  -0.00181  -0.00292   0.00530   0.00238   1.60882
    A9        1.53092   0.00016   0.00233  -0.00538  -0.00306   1.52786
    D1       -2.09670  -0.00456  -0.00405  -0.00925  -0.01332  -2.11001
    D2        2.97270   0.00000   0.01078  -0.03079  -0.02001   2.95269
    D3        2.09635   0.00441   0.00405   0.00923   0.01328   2.10964
    D4       -1.67395  -0.00173   0.00581  -0.02496  -0.01936  -1.69332
    D5       -2.09664  -0.00669  -0.00396  -0.01427  -0.01824  -2.11488
    D6        1.63653  -0.00173  -0.00496   0.00583   0.00065   1.63718
    D7        2.09019  -0.01110  -0.00801  -0.02350  -0.03152   2.05866
         Item               Value     Threshold  Converged?
 Maximum Force            0.011100     0.000450     NO 
 RMS     Force            0.004704     0.000300     NO 
 Maximum Displacement     0.056433     0.001800     NO 
 RMS     Displacement     0.021584     0.001200     NO 
 Predicted change in Energy=-6.517029D-04
 GradGradGradGradGradGradGradGradGradGradGradGradGradGradGradGradGradGrad

                          Input orientation:                          
 ---------------------------------------------------------------------
 Center     Atomic      Atomic             Coordinates (Angstroms)
 Number     Number       Type             X           Y           Z
 ---------------------------------------------------------------------
      1         79           0       -0.705716    0.518721   -0.391998
      2         17           0        0.251741    1.957792   -2.127852
      3         17           0        0.252550   -1.715215    0.055272
      4         17           0        0.602992    1.576742    1.513383
      5         17           0       -2.871483    1.074782    0.661436
      6          1           0       -1.501853   -0.127111   -1.533370
 ---------------------------------------------------------------------
                    Distance matrix (angstroms):
                    1          2          3          4          5
     1  Au   0.000000
     2  Cl   2.449660   0.000000
     3  Cl   2.471598   4.272822   0.000000
     4  Cl   2.542164   3.677929   3.617440   0.000000
     5  Cl   2.471735   4.279528   4.232150   3.612444   0.000000
     6  H    1.534165   2.788426   2.850226   4.076295   2.852648
                    6
     6  H    0.000000
 Stoichiometry    AuCl4H
 Framework group  C1[X(AuCl4H)]
 Deg. of freedom    12
 Full point group                 C1      NOp   1
 Largest Abelian subgroup         C1      NOp   1
 Largest concise Abelian subgroup C1      NOp   1
                         Standard orientation:                         
 ---------------------------------------------------------------------
 Center     Atomic      Atomic             Coordinates (Angstroms)
 Number     Number       Type             X           Y           Z
 ---------------------------------------------------------------------
      1         79           0       -0.030450   -0.001303   -0.233535
      2         17           0       -2.475053   -0.157400   -0.253156
      3         17           0        1.088161    2.194731   -0.420454
      4         17           0        0.166898   -0.003239    2.300956
      5         17           0        1.369536   -2.028017   -0.438330
      6          1           0       -0.136687   -0.000347   -1.764017
 ---------------------------------------------------------------------
 Rotational constants (GHZ):      0.9586573      0.9421177      0.7952316
 Standard basis: LANL2DZ (5D, 7F)
 There are    56 symmetry adapted basis functions of A   symmetry.
 Integral buffers will be    262144 words long.
 Raffenetti 2 integral format.
 Two-electron integral symmetry is turned on.
    56 basis functions,    95 primitive gaussians,    58 cartesian basis functions
    24 alpha electrons       24 beta electrons
       nuclear repulsion energy       164.4051803354 Hartrees.
 NAtoms=    6 NActive=    6 NUniq=    6 SFac= 7.50D-01 NAtFMM=   80 NAOKFM=F Big=F
 ------------------------------------------------------------------------------
 Polarizable Continuum Model (PCM)
 =================================
 Model                : PCM.
 Atomic radii         : SMD-Coulomb.
 Polarization charges : Total charges.
 Charge compensation  : None.
 Solution method      : Matrix inversion.
 Cavity type          : VdW (van der Waals Surface) (Alpha=1.000).
 Cavity algorithm     : GePol (No added spheres)
                        Default sphere list used, NSphG=    6.
                        Lebedev-Laikov grids with approx.  5.0 points / Ang**2.
                        Smoothing algorithm: Karplus/York (Gamma=1.0000).
                        Polarization charges: spherical gaussians, with
                                              point-specific exponents (IZeta= 3).
                        Self-potential: point-specific (ISelfS= 7).
                        Self-field    : sphere-specific E.n sum rule (ISelfD= 2).
 1st derivatives      : Analytical E(r).r(x)/FMM algorithm (CHGder, D1EAlg=3).
                        Cavity 1st derivative terms included.
 Solvent              : Water, Eps=  78.355300 Eps(inf)=   1.777849
 ------------------------------------------------------------------------------
 Spheres list:
 ISph  on   Nord    Re0     Alpha      Xe            Ye            Ze
    1  Au      1    1.660   1.000     -0.030450     -0.001303     -0.233535
    2  Cl      2    2.380   1.000     -2.475053     -0.157400     -0.253156
    3  Cl      3    2.380   1.000      1.088161      2.194731     -0.420454
    4  Cl      4    2.380   1.000      0.166898     -0.003239      2.300956
    5  Cl      5    2.380   1.000      1.369536     -2.028017     -0.438330
    6   H      6    1.200   1.000     -0.136687     -0.000347     -1.764017
 ------------------------------------------------------------------------------
 ------------------------------------------------------------------------------
 Atomic radii for non-electrostatic terms: SMD-CDS.
 ------------------------------------------------------------------------------
 Nuclear repulsion after PCM non-electrostatic terms =      164.4089939080 Hartrees.
 One-electron integrals computed using PRISM.
   1 Symmetry operations used in ECPInt.
 ECPInt:  NShTT=     351 NPrTT=    1012 LenC2=     352 LenP2D=     978.
 LDataN:  DoStor=T MaxTD1= 6 Len=  172
 NBasis=    56 RedAO= T  NBF=    56
 NBsUse=    56 1.00D-06 NBFU=    56
 Defaulting to unpruned grid for atomic number  79.
 Initial guess read from the read-write file.
 B after Tr=     0.000000    0.000000    0.000000
         Rot=    1.000000    0.000000    0.000000    0.000000 Ang=   0.00 deg.
 Initial guess orbital symmetries:
       Occupied  (A) (A) (A) (A) (A) (A) (A) (A) (A) (A) (A) (A)
                 (A) (A) (A) (A) (A) (A) (A) (A) (A) (A) (A) (A)
       Virtual   (A) (A) (A) (A) (A) (A) (A) (A) (A) (A) (A) (A)
                 (A) (A) (A) (A) (A) (A) (A) (A) (A) (A) (A) (A)
                 (A) (A) (A) (A) (A) (A) (A) (A)
 Harris functional with IExCor= 1009 diagonalized for initial guess.
 ExpMin= 2.79D-02 ExpMax= 1.92D+01 ExpMxC= 1.92D+01 IAcc=3 IRadAn=         0 AccDes= 0.00D+00
 HarFok:  IExCor= 1009 AccDes= 0.00D+00 IRadAn=         0 IDoV= 1
 ScaDFX=  1.000000  1.000000  1.000000  1.000000
 Defaulting to unpruned grid for atomic number  79.
 Defaulting to unpruned grid for atomic number  79.
 Defaulting to unpruned grid for atomic number  79.
 Defaulting to unpruned grid for atomic number  79.
 FoFCou: FMM=F IPFlag=           0 FMFlag=      100000 FMFlg1=           0
         NFxFlg=           0 DoJE=T BraDBF=F KetDBF=T FulRan=T
         Omega=  0.000000  0.000000  1.000000  0.000000  0.000000 ICntrl=     500 IOpCl=  0
         NMat0=    1 NMatS0=    1 NMatT0=    0 NMatD0=    1 NMtDS0=    0 NMtDT0=    0
         I1Cent=           4 NGrid=           0.
 Petite list used in FoFCou.
 Requested convergence on RMS density matrix=1.00D-08 within 128 cycles.
 Requested convergence on MAX density matrix=1.00D-06.
 Requested convergence on             energy=1.00D-06.
 No special actions if energy rises.
 Keep R1 ints in memory in canonical form, NReq=6522429.
 Defaulting to unpruned grid for atomic number  79.
 Defaulting to unpruned grid for atomic number  79.
 Defaulting to unpruned grid for atomic number  79.
 Defaulting to unpruned grid for atomic number  79.
 Error on total polarization charges =  0.00557
 SCF Done:  E(RM062X) =  -195.366800070     A.U. after   53 cycles
             Convg  =    0.3038D-08             -V/T =  3.9753
 SMD-CDS (non-electrostatic) energy             (kcal/mol) =       2.39
 (included in total energy above)
   1 Symmetry operations used in ECPInt.
 ECPInt:  NShTT=     351 NPrTT=    1012 LenC2=     352 LenP2D=     978.
 LDataN:  DoStor=T MaxTD1= 7 Len=  274
 D1PCM: PCM CHGder 1st derivatives, ID1Alg=3 FixD1E=F DoIter=F DoCFld=F I1PDM=0.
 Calling FoFJK, ICntrl=      2127 FMM=F ISym2X=0 I1Cent= 0 IOpClX= 0 NMat=1 NMatS=1 NMatT=0.
 Defaulting to unpruned grid for atomic number  79.
 Defaulting to unpruned grid for atomic number  79.
 Defaulting to unpruned grid for atomic number  79.
 Defaulting to unpruned grid for atomic number  79.
 ***** Axes restored to original set *****
 -------------------------------------------------------------------
 Center     Atomic                   Forces (Hartrees/Bohr)
 Number     Number              X              Y              Z
 -------------------------------------------------------------------
      1       79           0.001132335   -0.002459631    0.007421645
      2       17          -0.001114841   -0.002367347    0.000994734
      3       17           0.006089229   -0.000998834   -0.004344753
      4       17          -0.000167037   -0.000078504    0.000537957
      5       17          -0.002963565    0.007624453   -0.002896712
      6        1          -0.002976122   -0.001720137   -0.001712871
 -------------------------------------------------------------------
 Cartesian Forces:  Max     0.007624453 RMS     0.003476766

 GradGradGradGradGradGradGradGradGradGradGradGradGradGradGradGradGradGrad
 Berny optimization.
 Using GEDIIS/GDIIS optimizer.
 Internal  Forces:  Max     0.011237431 RMS     0.004615012
 Search for a local minimum.
 Step number   4 out of a maximum of   31
 All quantities printed in internal units (Hartrees-Bohrs-Radians)
 Mixed Optimization -- RFO/linear search
 Update second derivatives using D2CorX and points    2    4    3
 DE=  9.34D-04 DEPred=-6.52D-04 R=-1.43D+00
 Trust test=-1.43D+00 RLast= 6.62D-02 DXMaxT set to 4.24D-01
 Use linear search instead of GDIIS.
 Quartic linear search produced a step of -0.83164.
 Iteration  1 RMS(Cart)=  0.01795578 RMS(Int)=  0.00014256
 Iteration  2 RMS(Cart)=  0.00014144 RMS(Int)=  0.00000671
 Iteration  3 RMS(Cart)=  0.00000000 RMS(Int)=  0.00000671
 Variable       Old X    -DE/DX   Delta X   Delta X   Delta X     New X
                                 (Linear)    (Quad)   (Total)
    R1        4.62919  -0.00253   0.00223   0.00000   0.00223   4.63141
    R2        4.67064   0.00248   0.00750   0.00000   0.00750   4.67815
    R3        4.80399   0.00029   0.00024   0.00000   0.00024   4.80423
    R4        4.67090   0.00307   0.00583   0.00000   0.00583   4.67673
    R5        2.89915   0.00354   0.00204   0.00000   0.00204   2.90119
    A1        2.10327  -0.00449  -0.00978   0.00000  -0.00977   2.09350
    A2        1.65631   0.00212  -0.01159   0.00000  -0.01158   1.64473
    A3        2.10868  -0.00668  -0.01397   0.00000  -0.01396   2.09472
    A4        1.49366   0.00107   0.00916   0.00000   0.00915   1.50282
    A5        1.61175   0.00048  -0.00122   0.00000  -0.00122   1.61053
    A6        2.05548   0.01105   0.02654   0.00000   0.02655   2.08202
    A7        1.52612   0.00037   0.00328   0.00000   0.00328   1.52940
    A8        1.60882  -0.00174  -0.00198   0.00000  -0.00197   1.60685
    A9        1.52786  -0.00233   0.00255   0.00000   0.00255   1.53041
    D1       -2.11001   0.00426   0.01108   0.00000   0.01108  -2.09894
    D2        2.95269  -0.00112   0.01664   0.00000   0.01664   2.96934
    D3        2.10964  -0.00467  -0.01105   0.00000  -0.01105   2.09859
    D4       -1.69332  -0.00068   0.01610   0.00000   0.01611  -1.67720
    D5       -2.11488   0.00657   0.01517   0.00000   0.01517  -2.09971
    D6        1.63718   0.00044  -0.00054   0.00000  -0.00053   1.63665
    D7        2.05866   0.01124   0.02622   0.00000   0.02622   2.08489
         Item               Value     Threshold  Converged?
 Maximum Force            0.011237     0.000450     NO 
 RMS     Force            0.004615     0.000300     NO 
 Maximum Displacement     0.046962     0.001800     NO 
 RMS     Displacement     0.017952     0.001200     NO 
 Predicted change in Energy=-8.260538D-04
 GradGradGradGradGradGradGradGradGradGradGradGradGradGradGradGradGradGrad

                          Input orientation:                          
 ---------------------------------------------------------------------
 Center     Atomic      Atomic             Coordinates (Angstroms)
 Number     Number       Type             X           Y           Z
 ---------------------------------------------------------------------
      1         79           0       -0.712487    0.509110   -0.389808
      2         17           0        0.252673    1.959441   -2.113646
      3         17           0        0.275227   -1.718664    0.045954
      4         17           0        0.600274    1.574710    1.508718
      5         17           0       -2.876518    1.099633    0.655647
      6          1           0       -1.510939   -0.138520   -1.529994
 ---------------------------------------------------------------------
                    Distance matrix (angstroms):
                    1          2          3          4          5
     1  Au   0.000000
     2  Cl   2.450839   0.000000
     3  Cl   2.475569   4.265306   0.000000
     4  Cl   2.542291   3.659285   3.618238   0.000000
     5  Cl   2.474818   4.266156   4.271770   3.611303   0.000000
     6  H    1.535244   2.802217   2.858471   4.077517   2.859170
                    6
     6  H    0.000000
 Stoichiometry    AuCl4H
 Framework group  C1[X(AuCl4H)]
 Deg. of freedom    12
 Full point group                 C1      NOp   1
 Largest Abelian subgroup         C1      NOp   1
 Largest concise Abelian subgroup C1      NOp   1
                         Standard orientation:                         
 ---------------------------------------------------------------------
 Center     Atomic      Atomic             Coordinates (Angstroms)
 Number     Number       Type             X           Y           Z
 ---------------------------------------------------------------------
      1         79           0        0.003816    0.021414   -0.238393
      2         17           0        0.275381    2.457089   -0.257080
      3         17           0        1.991336   -1.445016   -0.405090
      4         17           0       -0.031374   -0.144165    2.298256
      5         17           0       -2.254349   -0.974042   -0.424094
      6          1           0        0.021699    0.112597   -1.770822
 ---------------------------------------------------------------------
 Rotational constants (GHZ):      0.9510002      0.9493383      0.7931112
 Standard basis: LANL2DZ (5D, 7F)
 There are    56 symmetry adapted basis functions of A   symmetry.
 Integral buffers will be    262144 words long.
 Raffenetti 2 integral format.
 Two-electron integral symmetry is turned on.
    56 basis functions,    95 primitive gaussians,    58 cartesian basis functions
    24 alpha electrons       24 beta electrons
       nuclear repulsion energy       164.3001556975 Hartrees.
 NAtoms=    6 NActive=    6 NUniq=    6 SFac= 7.50D-01 NAtFMM=   80 NAOKFM=F Big=F
 ------------------------------------------------------------------------------
 Polarizable Continuum Model (PCM)
 =================================
 Model                : PCM.
 Atomic radii         : SMD-Coulomb.
 Polarization charges : Total charges.
 Charge compensation  : None.
 Solution method      : Matrix inversion.
 Cavity type          : VdW (van der Waals Surface) (Alpha=1.000).
 Cavity algorithm     : GePol (No added spheres)
                        Default sphere list used, NSphG=    6.
                        Lebedev-Laikov grids with approx.  5.0 points / Ang**2.
                        Smoothing algorithm: Karplus/York (Gamma=1.0000).
                        Polarization charges: spherical gaussians, with
                                              point-specific exponents (IZeta= 3).
                        Self-potential: point-specific (ISelfS= 7).
                        Self-field    : sphere-specific E.n sum rule (ISelfD= 2).
 1st derivatives      : Analytical E(r).r(x)/FMM algorithm (CHGder, D1EAlg=3).
                        Cavity 1st derivative terms included.
 Solvent              : Water, Eps=  78.355300 Eps(inf)=   1.777849
 ------------------------------------------------------------------------------
 Spheres list:
 ISph  on   Nord    Re0     Alpha      Xe            Ye            Ze
    1  Au      1    1.660   1.000      0.003816      0.021414     -0.238393
    2  Cl      2    2.380   1.000      0.275381      2.457089     -0.257080
    3  Cl      3    2.380   1.000      1.991336     -1.445016     -0.405090
    4  Cl      4    2.380   1.000     -0.031374     -0.144165      2.298256
    5  Cl      5    2.380   1.000     -2.254349     -0.974042     -0.424094
    6   H      6    1.200   1.000      0.021699      0.112597     -1.770822
 ------------------------------------------------------------------------------
 ------------------------------------------------------------------------------
 Atomic radii for non-electrostatic terms: SMD-CDS.
 ------------------------------------------------------------------------------
 Nuclear repulsion after PCM non-electrostatic terms =      164.3039744759 Hartrees.
 One-electron integrals computed using PRISM.
   1 Symmetry operations used in ECPInt.
 ECPInt:  NShTT=     351 NPrTT=    1012 LenC2=     352 LenP2D=     978.
 LDataN:  DoStor=T MaxTD1= 6 Len=  172
 NBasis=    56 RedAO= T  NBF=    56
 NBsUse=    56 1.00D-06 NBFU=    56
 Defaulting to unpruned grid for atomic number  79.
 Initial guess read from the read-write file.
 B after Tr=     0.000000    0.000000    0.000000
         Rot=    1.000000    0.000000    0.000000    0.000000 Ang=   0.00 deg.
 Initial guess orbital symmetries:
       Occupied  (A) (A) (A) (A) (A) (A) (A) (A) (A) (A) (A) (A)
                 (A) (A) (A) (A) (A) (A) (A) (A) (A) (A) (A) (A)
       Virtual   (A) (A) (A) (A) (A) (A) (A) (A) (A) (A) (A) (A)
                 (A) (A) (A) (A) (A) (A) (A) (A) (A) (A) (A) (A)
                 (A) (A) (A) (A) (A) (A) (A) (A)
 Harris functional with IExCor= 1009 diagonalized for initial guess.
 ExpMin= 2.79D-02 ExpMax= 1.92D+01 ExpMxC= 1.92D+01 IAcc=3 IRadAn=         0 AccDes= 0.00D+00
 HarFok:  IExCor= 1009 AccDes= 0.00D+00 IRadAn=         0 IDoV= 1
 ScaDFX=  1.000000  1.000000  1.000000  1.000000
 Defaulting to unpruned grid for atomic number  79.
 Defaulting to unpruned grid for atomic number  79.
 Defaulting to unpruned grid for atomic number  79.
 Defaulting to unpruned grid for atomic number  79.
 FoFCou: FMM=F IPFlag=           0 FMFlag=      100000 FMFlg1=           0
         NFxFlg=           0 DoJE=T BraDBF=F KetDBF=T FulRan=T
         Omega=  0.000000  0.000000  1.000000  0.000000  0.000000 ICntrl=     500 IOpCl=  0
         NMat0=    1 NMatS0=    1 NMatT0=    0 NMatD0=    1 NMtDS0=    0 NMtDT0=    0
         I1Cent=           4 NGrid=           0.
 Petite list used in FoFCou.
 Requested convergence on RMS density matrix=1.00D-08 within 128 cycles.
 Requested convergence on MAX density matrix=1.00D-06.
 Requested convergence on             energy=1.00D-06.
 No special actions if energy rises.
 Keep R1 ints in memory in canonical form, NReq=6513695.
 Defaulting to unpruned grid for atomic number  79.
 Defaulting to unpruned grid for atomic number  79.
 Defaulting to unpruned grid for atomic number  79.
 Defaulting to unpruned grid for atomic number  79.
 Error on total polarization charges =  0.00560
 SCF Done:  E(RM062X) =  -195.367793484     A.U. after   40 cycles
             Convg  =    0.3348D-08             -V/T =  3.9756
 SMD-CDS (non-electrostatic) energy             (kcal/mol) =       2.40
 (included in total energy above)
   1 Symmetry operations used in ECPInt.
 ECPInt:  NShTT=     351 NPrTT=    1012 LenC2=     352 LenP2D=     978.
 LDataN:  DoStor=T MaxTD1= 7 Len=  274
 D1PCM: PCM CHGder 1st derivatives, ID1Alg=3 FixD1E=F DoIter=F DoCFld=F I1PDM=0.
 Calling FoFJK, ICntrl=      2127 FMM=F ISym2X=0 I1Cent= 0 IOpClX= 0 NMat=1 NMatS=1 NMatT=0.
 Defaulting to unpruned grid for atomic number  79.
 Defaulting to unpruned grid for atomic number  79.
 Defaulting to unpruned grid for atomic number  79.
 Defaulting to unpruned grid for atomic number  79.
 ***** Axes restored to original set *****
 -------------------------------------------------------------------
 Center     Atomic                   Forces (Hartrees/Bohr)
 Number     Number              X              Y              Z
 -------------------------------------------------------------------
      1       79           0.004686903    0.005340762   -0.002087877
      2       17           0.001196599    0.003717032   -0.004304551
      3       17          -0.007742473    0.001580053    0.004648727
      4       17          -0.000830718   -0.000592039    0.001056841
      5       17           0.004229762   -0.007729814    0.003818796
      6        1          -0.001540073   -0.002315994   -0.003131937
 -------------------------------------------------------------------
 Cartesian Forces:  Max     0.007742473 RMS     0.003976366

 GradGradGradGradGradGradGradGradGradGradGradGradGradGradGradGradGradGrad
 Berny optimization.
 Using GEDIIS/GDIIS optimizer.
 Internal  Forces:  Max     0.012217293 RMS     0.005338287
 Search for a local minimum.
 Step number   5 out of a maximum of   31
 All quantities printed in internal units (Hartrees-Bohrs-Radians)
 Mixed Optimization -- RFO/linear search
 Update second derivatives using D2CorX and points    2    4    3    5
 Use linear search instead of GDIIS.
     Eigenvalues ---   -3.36546   0.00440   0.06155   0.09889   0.11246
     Eigenvalues ---    0.14421   0.16099   0.16929   0.18912   0.19139
     Eigenvalues ---    0.19225   0.242971000.000001000.000001000.00000
     Eigenvalues --- 1000.000001000.000001000.000001000.000001000.00000
     Eigenvalues --- 1000.00000
 RFO step:  Lambda=-3.36551431D+00 EMin=-3.36545730D+00
 RFO eigenvector is Hessian eigenvector with negative curvature.
 Taking step of  1.00D+00 in eigenvector direction.  Step.Grad= -1.39D-02.
 Skip linear search -- no minimum in search direction.
 Maximum step size (   0.424) exceeded in Quadratic search.
    -- Step size scaled by   0.424
 Iteration  1 RMS(Cart)=  0.14204429 RMS(Int)=  0.00723026
 Iteration  2 RMS(Cart)=  0.01002069 RMS(Int)=  0.00336972
 Iteration  3 RMS(Cart)=  0.00007248 RMS(Int)=  0.00336940
 Iteration  4 RMS(Cart)=  0.00000047 RMS(Int)=  0.00336940
 Variable       Old X    -DE/DX   Delta X   Delta X   Delta X     New X
                                 (Linear)    (Quad)   (Total)
    R1        4.63141   0.00571   0.00000   0.20446   0.20446   4.83588
    R2        4.67815  -0.00369   0.00000   0.08794   0.08794   4.76609
    R3        4.80423   0.00011   0.00000   0.07647   0.07647   4.88071
    R4        4.67673  -0.00394   0.00000   0.06263   0.06263   4.73936
    R5        2.90119   0.00410   0.00000   0.17491   0.17491   3.07610
    A1        2.09350   0.00527   0.00000   0.06331   0.06377   2.15727
    A2        1.64473   0.00274   0.00000   0.05926   0.05983   1.70456
    A3        2.09472   0.00696   0.00000   0.02245   0.01675   2.11147
    A4        1.50282   0.00081   0.00000   0.08563   0.08472   1.58754
    A5        1.61053   0.00082   0.00000   0.04698   0.04000   1.65053
    A6        2.08202  -0.01221   0.00000  -0.08032  -0.07570   2.00633
    A7        1.52940  -0.00196   0.00000  -0.14011  -0.14021   1.38920
    A8        1.60685  -0.00395   0.00000  -0.14015  -0.14176   1.46509
    A9        1.53041   0.00144   0.00000   0.08668   0.08630   1.61671
    D1       -2.09894  -0.00564   0.00000  -0.07414  -0.07951  -2.17845
    D2        2.96934   0.00062   0.00000   0.04211   0.04042   3.00976
    D3        2.09859   0.00544   0.00000   0.07062   0.06621   2.16480
    D4       -1.67720  -0.00155   0.00000   0.01108   0.01354  -1.66366
    D5       -2.09971  -0.00678   0.00000  -0.00628  -0.01337  -2.11308
    D6        1.63665  -0.00218   0.00000  -0.03102  -0.02688   1.60977
    D7        2.08489  -0.01222   0.00000  -0.07691  -0.07958   2.00530
         Item               Value     Threshold  Converged?
 Maximum Force            0.012217     0.000450     NO 
 RMS     Force            0.005338     0.000300     NO 
 Maximum Displacement     0.324429     0.001800     NO 
 RMS     Displacement     0.147219     0.001200     NO 
 Predicted change in Energy=-3.070397D-01
 GradGradGradGradGradGradGradGradGradGradGradGradGradGradGradGradGradGrad

                          Input orientation:                          
 ---------------------------------------------------------------------
 Center     Atomic      Atomic             Coordinates (Angstroms)
 Number     Number       Type             X           Y           Z
 ---------------------------------------------------------------------
      1         79           0       -0.677338    0.539644   -0.437675
      2         17           0        0.293051    2.083967   -2.232691
      3         17           0        0.195110   -1.780539    0.027725
      4         17           0        0.486792    1.610537    1.604049
      5         17           0       -2.784130    1.142301    0.782198
      6          1           0       -1.485255   -0.310200   -1.566735
 ---------------------------------------------------------------------
                    Distance matrix (angstroms):
                    1          2          3          4          5
     1  Au   0.000000
     2  Cl   2.559037   0.000000
     3  Cl   2.522105   4.478111   0.000000
     4  Cl   2.582760   3.870691   3.750903   0.000000
     5  Cl   2.507959   4.409686   4.241237   3.404940   0.000000
     6  H    1.627804   3.055799   2.743688   4.199057   3.051938
                    6
     6  H    0.000000
 Stoichiometry    AuCl4H
 Framework group  C1[X(AuCl4H)]
 Deg. of freedom    12
 Full point group                 C1      NOp   1
 Largest Abelian subgroup         C1      NOp   1
 Largest concise Abelian subgroup C1      NOp   1
                         Standard orientation:                         
 ---------------------------------------------------------------------
 Center     Atomic      Atomic             Coordinates (Angstroms)
 Number     Number       Type             X           Y           Z
 ---------------------------------------------------------------------
      1         79           0       -0.073591    0.089471   -0.227094
      2         17           0       -2.623932    0.082786   -0.016412
      3         17           0        1.336721    2.172285   -0.042926
      4         17           0        0.471208   -0.739376    2.157619
      5         17           0        1.168203   -1.969600   -0.939859
      6          1           0       -0.173740    0.648177   -1.752729
 ---------------------------------------------------------------------
 Rotational constants (GHZ):      0.9555138      0.8917751      0.7412197
 Standard basis: LANL2DZ (5D, 7F)
 There are    56 symmetry adapted basis functions of A   symmetry.
 Integral buffers will be    262144 words long.
 Raffenetti 2 integral format.
 Two-electron integral symmetry is turned on.
    56 basis functions,    95 primitive gaussians,    58 cartesian basis functions
    24 alpha electrons       24 beta electrons
       nuclear repulsion energy       160.5675072568 Hartrees.
 NAtoms=    6 NActive=    6 NUniq=    6 SFac= 7.50D-01 NAtFMM=   80 NAOKFM=F Big=F
 ------------------------------------------------------------------------------
 Polarizable Continuum Model (PCM)
 =================================
 Model                : PCM.
 Atomic radii         : SMD-Coulomb.
 Polarization charges : Total charges.
 Charge compensation  : None.
 Solution method      : Matrix inversion.
 Cavity type          : VdW (van der Waals Surface) (Alpha=1.000).
 Cavity algorithm     : GePol (No added spheres)
                        Default sphere list used, NSphG=    6.
                        Lebedev-Laikov grids with approx.  5.0 points / Ang**2.
                        Smoothing algorithm: Karplus/York (Gamma=1.0000).
                        Polarization charges: spherical gaussians, with
                                              point-specific exponents (IZeta= 3).
                        Self-potential: point-specific (ISelfS= 7).
                        Self-field    : sphere-specific E.n sum rule (ISelfD= 2).
 1st derivatives      : Analytical E(r).r(x)/FMM algorithm (CHGder, D1EAlg=3).
                        Cavity 1st derivative terms included.
 Solvent              : Water, Eps=  78.355300 Eps(inf)=   1.777849
 ------------------------------------------------------------------------------
 Spheres list:
 ISph  on   Nord    Re0     Alpha      Xe            Ye            Ze
    1  Au      1    1.660   1.000     -0.073591      0.089471     -0.227094
    2  Cl      2    2.380   1.000     -2.623932      0.082786     -0.016412
    3  Cl      3    2.380   1.000      1.336721      2.172285     -0.042926
    4  Cl      4    2.380   1.000      0.471208     -0.739376      2.157619
    5  Cl      5    2.380   1.000      1.168203     -1.969600     -0.939859
    6   H      6    1.200   1.000     -0.173740      0.648177     -1.752729
 ------------------------------------------------------------------------------
 ------------------------------------------------------------------------------
 Atomic radii for non-electrostatic terms: SMD-CDS.
 ------------------------------------------------------------------------------
 Nuclear repulsion after PCM non-electrostatic terms =      160.5714427872 Hartrees.
 One-electron integrals computed using PRISM.
   1 Symmetry operations used in ECPInt.
 ECPInt:  NShTT=     351 NPrTT=    1012 LenC2=     352 LenP2D=     977.
 LDataN:  DoStor=T MaxTD1= 6 Len=  172
 NBasis=    56 RedAO= T  NBF=    56
 NBsUse=    56 1.00D-06 NBFU=    56
 Defaulting to unpruned grid for atomic number  79.
 Initial guess read from the read-write file.
 B after Tr=     0.000000    0.000000    0.000000
         Rot=    1.000000    0.000000    0.000000    0.000000 Ang=   0.00 deg.
 Initial guess orbital symmetries:
       Occupied  (A) (A) (A) (A) (A) (A) (A) (A) (A) (A) (A) (A)
                 (A) (A) (A) (A) (A) (A) (A) (A) (A) (A) (A) (A)
       Virtual   (A) (A) (A) (A) (A) (A) (A) (A) (A) (A) (A) (A)
                 (A) (A) (A) (A) (A) (A) (A) (A) (A) (A) (A) (A)
                 (A) (A) (A) (A) (A) (A) (A) (A)
 Harris functional with IExCor= 1009 diagonalized for initial guess.
 ExpMin= 2.79D-02 ExpMax= 1.92D+01 ExpMxC= 1.92D+01 IAcc=3 IRadAn=         0 AccDes= 0.00D+00
 HarFok:  IExCor= 1009 AccDes= 0.00D+00 IRadAn=         0 IDoV= 1
 ScaDFX=  1.000000  1.000000  1.000000  1.000000
 Defaulting to unpruned grid for atomic number  79.
 Defaulting to unpruned grid for atomic number  79.
 Defaulting to unpruned grid for atomic number  79.
 Defaulting to unpruned grid for atomic number  79.
 FoFCou: FMM=F IPFlag=           0 FMFlag=      100000 FMFlg1=           0
         NFxFlg=           0 DoJE=T BraDBF=F KetDBF=T FulRan=T
         Omega=  0.000000  0.000000  1.000000  0.000000  0.000000 ICntrl=     500 IOpCl=  0
         NMat0=    1 NMatS0=    1 NMatT0=    0 NMatD0=    1 NMtDS0=    0 NMtDT0=    0
         I1Cent=           4 NGrid=           0.
 Petite list used in FoFCou.
 Requested convergence on RMS density matrix=1.00D-08 within 128 cycles.
 Requested convergence on MAX density matrix=1.00D-06.
 Requested convergence on             energy=1.00D-06.
 No special actions if energy rises.
 Keep R1 ints in memory in canonical form, NReq=6628503.
 Defaulting to unpruned grid for atomic number  79.
 Defaulting to unpruned grid for atomic number  79.
 Defaulting to unpruned grid for atomic number  79.
 Defaulting to unpruned grid for atomic number  79.
 Error on total polarization charges =  0.00584
 SCF Done:  E(RM062X) =  -195.369032760     A.U. after   45 cycles
             Convg  =    0.3660D-08             -V/T =  3.9806
 SMD-CDS (non-electrostatic) energy             (kcal/mol) =       2.47
 (included in total energy above)
   1 Symmetry operations used in ECPInt.
 ECPInt:  NShTT=     351 NPrTT=    1012 LenC2=     352 LenP2D=     977.
 LDataN:  DoStor=T MaxTD1= 7 Len=  274
[...]
 ---------------------------------------------------------------------
      1         79           0        1.102031   -0.337491    0.035962
      2         17           0        2.915871    1.412985    0.125063
      3         17           0       -2.908927    0.952486   -0.933166
      4         17           0       -1.410892   -1.243090   -0.329173
      5         17           0       -3.773788    0.380894    0.984225
      6          1           0        0.961085    1.106106   -0.239154
 ---------------------------------------------------------------------
 Rotational constants (GHZ):      2.0001556      0.3447271      0.3197052
 Standard basis: LANL2DZ (5D, 7F)
 There are    56 symmetry adapted basis functions of A   symmetry.
 Integral buffers will be    262144 words long.
 Raffenetti 2 integral format.
 Two-electron integral symmetry is turned on.
    56 basis functions,    95 primitive gaussians,    58 cartesian basis functions
    24 alpha electrons       24 beta electrons
       nuclear repulsion energy       138.6479570957 Hartrees.
 NAtoms=    6 NActive=    6 NUniq=    6 SFac= 7.50D-01 NAtFMM=   80 NAOKFM=F Big=F
 ------------------------------------------------------------------------------
 Polarizable Continuum Model (PCM)
 =================================
 Model                : PCM.
 Atomic radii         : SMD-Coulomb.
 Polarization charges : Total charges.
 Charge compensation  : None.
 Solution method      : Matrix inversion.
 Cavity type          : VdW (van der Waals Surface) (Alpha=1.000).
 Cavity algorithm     : GePol (No added spheres)
                        Default sphere list used, NSphG=    6.
                        Lebedev-Laikov grids with approx.  5.0 points / Ang**2.
                        Smoothing algorithm: Karplus/York (Gamma=1.0000).
                        Polarization charges: spherical gaussians, with
                                              point-specific exponents (IZeta= 3).
                        Self-potential: point-specific (ISelfS= 7).
                        Self-field    : sphere-specific E.n sum rule (ISelfD= 2).
 1st derivatives      : Analytical E(r).r(x)/FMM algorithm (CHGder, D1EAlg=3).
                        Cavity 1st derivative terms included.
 Solvent              : Water, Eps=  78.355300 Eps(inf)=   1.777849
 ------------------------------------------------------------------------------
 Spheres list:
 ISph  on   Nord    Re0     Alpha      Xe            Ye            Ze
    1  Au      1    1.660   1.000      1.102031     -0.337491      0.035962
    2  Cl      2    2.380   1.000      2.915871      1.412985      0.125063
    3  Cl      3    2.380   1.000     -2.908927      0.952486     -0.933166
    4  Cl      4    2.380   1.000     -1.410892     -1.243090     -0.329173
    5  Cl      5    2.380   1.000     -3.773788      0.380894      0.984225
    6   H      6    1.200   1.000      0.961085      1.106106     -0.239154
 ------------------------------------------------------------------------------
 ------------------------------------------------------------------------------
 Atomic radii for non-electrostatic terms: SMD-CDS.
 ------------------------------------------------------------------------------
 Nuclear repulsion after PCM non-electrostatic terms =      138.6512251068 Hartrees.
 One-electron integrals computed using PRISM.
   1 Symmetry operations used in ECPInt.
 ECPInt:  NShTT=     351 NPrTT=    1012 LenC2=     352 LenP2D=     946.
 LDataN:  DoStor=T MaxTD1= 6 Len=  172
 NBasis=    56 RedAO= T  NBF=    56
 NBsUse=    56 1.00D-06 NBFU=    56
 Defaulting to unpruned grid for atomic number  79.
 Initial guess read from the read-write file.
 B after Tr=     0.000000    0.000000    0.000000
         Rot=    1.000000    0.000000    0.000000    0.000000 Ang=   0.00 deg.
 Initial guess orbital symmetries:
       Occupied  (A) (A) (A) (A) (A) (A) (A) (A) (A) (A) (A) (A)
                 (A) (A) (A) (A) (A) (A) (A) (A) (A) (A) (A) (A)
       Virtual   (A) (A) (A) (A) (A) (A) (A) (A) (A) (A) (A) (A)
                 (A) (A) (A) (A) (A) (A) (A) (A) (A) (A) (A) (A)
                 (A) (A) (A) (A) (A) (A) (A) (A)
 Harris functional with IExCor= 1009 diagonalized for initial guess.
 ExpMin= 2.79D-02 ExpMax= 1.92D+01 ExpMxC= 1.92D+01 IAcc=3 IRadAn=         0 AccDes= 0.00D+00
 HarFok:  IExCor= 1009 AccDes= 0.00D+00 IRadAn=         0 IDoV= 1
 ScaDFX=  1.000000  1.000000  1.000000  1.000000
 Defaulting to unpruned grid for atomic number  79.
 Defaulting to unpruned grid for atomic number  79.
 Defaulting to unpruned grid for atomic number  79.
 Defaulting to unpruned grid for atomic number  79.
 FoFCou: FMM=F IPFlag=           0 FMFlag=      100000 FMFlg1=           0
         NFxFlg=           0 DoJE=T BraDBF=F KetDBF=T FulRan=T
         Omega=  0.000000  0.000000  1.000000  0.000000  0.000000 ICntrl=     500 IOpCl=  0
         NMat0=    1 NMatS0=    1 NMatT0=    0 NMatD0=    1 NMtDS0=    0 NMtDT0=    0
         I1Cent=           4 NGrid=           0.
 Petite list used in FoFCou.
 Requested convergence on RMS density matrix=1.00D-08 within 128 cycles.
 Requested convergence on MAX density matrix=1.00D-06.
 Requested convergence on             energy=1.00D-06.
 No special actions if energy rises.
 Keep R1 ints in memory in canonical form, NReq=6438936.
 Defaulting to unpruned grid for atomic number  79.
 Defaulting to unpruned grid for atomic number  79.
 Defaulting to unpruned grid for atomic number  79.
 Defaulting to unpruned grid for atomic number  79.
 Error on total polarization charges =  0.01443
 SCF Done:  E(RM062X) =  -195.438266952     A.U. after   16 cycles
             Convg  =    0.8981D-08             -V/T =  3.9603
 SMD-CDS (non-electrostatic) energy             (kcal/mol) =       2.05
 (included in total energy above)
   1 Symmetry operations used in ECPInt.
 ECPInt:  NShTT=     351 NPrTT=    1012 LenC2=     352 LenP2D=     946.
 LDataN:  DoStor=T MaxTD1= 7 Len=  274
 D1PCM: PCM CHGder 1st derivatives, ID1Alg=3 FixD1E=F DoIter=F DoCFld=F I1PDM=0.
 Calling FoFJK, ICntrl=      2127 FMM=F ISym2X=0 I1Cent= 0 IOpClX= 0 NMat=1 NMatS=1 NMatT=0.
 Defaulting to unpruned grid for atomic number  79.
 Defaulting to unpruned grid for atomic number  79.
 Defaulting to unpruned grid for atomic number  79.
 Defaulting to unpruned grid for atomic number  79.
 ***** Axes restored to original set *****
 -------------------------------------------------------------------
 Center     Atomic                   Forces (Hartrees/Bohr)
 Number     Number              X              Y              Z
 -------------------------------------------------------------------
      1       79           0.008074944    0.006769724    0.039824130
      2       17           0.001592299    0.003097059    0.001225125
      3       17          -0.019380239   -0.037078435   -0.005668401
      4       17           0.026901496    0.051943661   -0.023491631
      5       17          -0.005298335   -0.002066270    0.001471079
      6        1          -0.011890166   -0.022665740   -0.013360301
 -------------------------------------------------------------------
 Cartesian Forces:  Max     0.051943661 RMS     0.021518680

 GradGradGradGradGradGradGradGradGradGradGradGradGradGradGradGradGradGrad
 Berny optimization.
 Using GEDIIS/GDIIS optimizer.
 Internal  Forces:  Max     0.064676770 RMS     0.029726483
 Search for a local minimum.
 Step number  31 out of a maximum of   31
 All quantities printed in internal units (Hartrees-Bohrs-Radians)
 Mixed Optimization -- RFO/linear search
 Update second derivatives using D2CorX and points   31   30
 DE=  2.51D-02 DEPred=-4.47D+00 R=-5.60D-03
 Trust test=-5.60D-03 RLast= 3.66D+00 DXMaxT set to 1.48D+00
 Use linear search instead of GDIIS.
 Quartic linear search produced a step of -0.48444.
 Iteration  1 RMS(Cart)=  0.13792083 RMS(Int)=  0.29881666
 Iteration  2 RMS(Cart)=  0.04859722 RMS(Int)=  0.24191381
 Iteration  3 RMS(Cart)=  0.03547845 RMS(Int)=  0.19404274
 Iteration  4 RMS(Cart)=  0.02363615 RMS(Int)=  0.15362811
 Iteration  5 RMS(Cart)=  0.01049135 RMS(Int)=  0.11859483
 Iteration  6 RMS(Cart)=  0.00929155 RMS(Int)=  0.08982689
 Iteration  7 RMS(Cart)=  0.00974724 RMS(Int)=  0.07600978
 Iteration  8 RMS(Cart)=  0.00333112 RMS(Int)=  0.07542446
 Iteration  9 RMS(Cart)=  0.00094863 RMS(Int)=  0.07530727
 Iteration 10 RMS(Cart)=  0.00026879 RMS(Int)=  0.07527217
 Iteration 11 RMS(Cart)=  0.00007962 RMS(Int)=  0.07526179
 Iteration 12 RMS(Cart)=  0.00002361 RMS(Int)=  0.07525872
 Iteration 13 RMS(Cart)=  0.00000700 RMS(Int)=  0.07525781
 Iteration 14 RMS(Cart)=  0.00000208 RMS(Int)=  0.07525754
 Iteration 15 RMS(Cart)=  0.00000062 RMS(Int)=  0.07525746
 Variable       Old X    -DE/DX   Delta X   Delta X   Delta X     New X
                                 (Linear)    (Quad)   (Total)
    R1        4.76650  -0.00120  -0.12591   0.00000  -0.12591   4.64059
    R2        8.16988   0.03394  -0.31858   0.00000  -0.31858   7.85130
    R3        5.09463  -0.04508  -0.26310   0.00000  -0.26310   4.83154
    R4        9.48426   0.00512  -0.62559   0.00000  -0.62559   8.85867
    R5        2.78984   0.02857   0.06436   0.00000   0.06436   2.85420
    A1        2.05783  -0.02524   0.19255   0.00000   0.20201   2.25984
    A2        2.70975   0.03934   0.01922   0.00000   0.33719   3.04693
    A3        2.20509  -0.00939   0.16189   0.00000   0.19235   2.39744
    A4        0.92307  -0.00632   0.11111   0.00000   0.11986   1.04293
    A5        0.65196   0.06468   0.20605   0.00000   0.21984   0.87180
    A6        0.44719   0.03472   0.04706   0.00000   0.05230   0.49949
    A7        1.13503  -0.01912   0.08132   0.00000   0.08196   1.21699
    A8        0.58833   0.05009   0.15522   0.00000   0.20666   0.79499
    A9        1.37198   0.00442   0.10672   0.00000   0.11554   1.48753
    D1       -0.01800  -0.01952  -1.48118   0.00000  -1.48684  -1.50484
    D2        1.37920  -0.00389   0.20727   0.00000   0.16082   1.54002
    D3       -3.11596  -0.00917  -0.01160   0.00000  -0.01379  -3.12975
    D4        2.76211   0.03131   0.36037   0.00000   0.26464   3.02675
    D5       -2.71527   0.01983   0.02021   0.00000   0.01731  -2.69796
    D6        1.38291   0.03520   0.15309   0.00000   0.10381   1.48673
    D7        0.40069   0.02900   0.03180   0.00000   0.03110   0.43179
         Item               Value     Threshold  Converged?
 Maximum Force            0.064677     0.000450     NO 
 RMS     Force            0.029726     0.000300     NO 
 Maximum Displacement     0.500122     0.001800     NO 
 RMS     Displacement     0.247658     0.001200     NO 
 Predicted change in Energy=-2.424254D-02
 Optimization stopped.
    -- Number of steps exceeded,  NStep=  31
    -- Flag reset to prevent archiving.
                           ----------------------------
                           ! Non-Optimized Parameters !
                           ! (Angstroms and Degrees)  !
 --------------------------                            --------------------------
 ! Name  Definition              Value          Derivative Info.                !
 --------------------------------------------------------------------------------
 ! R1    R(1,2)                  2.4557         -DE/DX =   -0.0012              !
 ! R2    R(1,3)                  4.1547         -DE/DX =    0.0339              !
 ! R3    R(1,4)                  2.5567         -DE/DX =   -0.0451              !
 ! R4    R(1,5)                  4.6878         -DE/DX =    0.0051              !
 ! R5    R(1,6)                  1.5104         -DE/DX =    0.0286              !
 ! A1    A(2,1,3)              129.4794         -DE/DX =   -0.0252              !
 ! A2    A(2,1,4)              174.5765         -DE/DX =    0.0393              !
 ! A3    A(2,1,5)              137.363          -DE/DX =   -0.0094              !
 ! A4    A(2,1,6)               59.7555         -DE/DX =   -0.0063              !
 ! A5    A(3,1,4)               49.9505         -DE/DX =    0.0647              !
 ! A6    A(3,1,5)               28.6186         -DE/DX =    0.0347              !
 ! A7    A(3,1,6)               69.7281         -DE/DX =   -0.0191              !
 ! A8    A(4,1,5)               45.5494         -DE/DX =    0.0501              !
 ! A9    A(5,1,6)               85.229          -DE/DX =    0.0044              !
 ! D1    D(2,1,4,3)            -86.2212         -DE/DX =   -0.0195              !
 ! D2    D(2,1,5,3)             88.2368         -DE/DX =   -0.0039              !
 ! D3    D(2,1,6,3)           -179.3215         -DE/DX =   -0.0092              !
 ! D4    D(2,1,5,4)            173.4199         -DE/DX =    0.0313              !
 ! D5    D(2,1,6,5)           -154.5817         -DE/DX =    0.0198              !
 ! D6    D(3,1,5,4)             85.1831         -DE/DX =    0.0352              !
 ! D7    D(3,1,6,5)             24.7398         -DE/DX =    0.029               !
 --------------------------------------------------------------------------------
 GradGradGradGradGradGradGradGradGradGradGradGradGradGradGradGradGradGrad

                          Input orientation:                          
 ---------------------------------------------------------------------
 Center     Atomic      Atomic             Coordinates (Angstroms)
 Number     Number       Type             X           Y           Z
 ---------------------------------------------------------------------
      1         79           0        0.270281    1.873501   -1.027027
      2         17           0        0.012668    1.965693   -3.534468
      3         17           0       -1.229263   -1.618577    1.033990
      4         17           0        0.028874    0.768358    1.420133
      5         17           0       -2.735575   -0.542624    2.184835
      6          1           0       -0.318754    0.839359   -1.900592
 ---------------------------------------------------------------------
                    Distance matrix (angstroms):
                    1          2          3          4          5
     1  Au   0.000000
     2  Cl   2.522325   0.000000
     3  Cl   4.323313   5.938029   0.000000
     4  Cl   2.695962   5.097249   2.725705   0.000000
     5  Cl   5.018853   6.823116   2.179700   3.153667   0.000000
     6  H    1.476322   2.011968   3.934749   3.339626   4.943846
                    6
     6  H    0.000000
 Stoichiometry    AuCl4H
 Framework group  C1[X(AuCl4H)]
 Deg. of freedom    12
 Full point group                 C1      NOp   1
 Largest Abelian subgroup         C1      NOp   1
 Largest concise Abelian subgroup C1      NOp   1
                         Standard orientation:                         
 ---------------------------------------------------------------------
 Center     Atomic      Atomic             Coordinates (Angstroms)
 Number     Number       Type             X           Y           Z
 ---------------------------------------------------------------------
      1         79           0        1.102031   -0.337491    0.035962
      2         17           0        2.915871    1.412985    0.125063
      3         17           0       -2.908927    0.952486   -0.933166
      4         17           0       -1.410892   -1.243090   -0.329173
      5         17           0       -3.773788    0.380894    0.984225
      6          1           0        0.961085    1.106106   -0.239154
 ---------------------------------------------------------------------
 Rotational constants (GHZ):      2.0001556      0.3447271      0.3197052

 **********************************************************************

            Population analysis using the SCF density.

 **********************************************************************

 Orbital symmetries:
       Occupied  (A) (A) (A) (A) (A) (A) (A) (A) (A) (A) (A) (A)
                 (A) (A) (A) (A) (A) (A) (A) (A) (A) (A) (A) (A)
       Virtual   (A) (A) (A) (A) (A) (A) (A) (A) (A) (A) (A) (A)
                 (A) (A) (A) (A) (A) (A) (A) (A) (A) (A) (A) (A)
                 (A) (A) (A) (A) (A) (A) (A) (A)
 The electronic state is 1-A.
 Alpha  occ. eigenvalues --   -4.41173  -2.53225  -2.51216  -2.49674  -0.98106
 Alpha  occ. eigenvalues --   -0.86930  -0.84523  -0.80524  -0.58175  -0.49695
 Alpha  occ. eigenvalues --   -0.48909  -0.46568  -0.45957  -0.45626  -0.45072
 Alpha  occ. eigenvalues --   -0.44780  -0.39653  -0.38556  -0.37591  -0.37120
 Alpha  occ. eigenvalues --   -0.36738  -0.34363  -0.32093  -0.29868
 Alpha virt. eigenvalues --   -0.13509  -0.09962  -0.01476   0.02205   0.04512
 Alpha virt. eigenvalues --    0.07101   0.13518   0.21352   0.26318   0.39319
 Alpha virt. eigenvalues --    0.40466   0.40861   0.47482   0.53469   0.66773
 Alpha virt. eigenvalues --    0.67640   0.68662   0.74772   0.76813   0.78373
 Alpha virt. eigenvalues --    0.78497   0.80742   0.81491   0.86555   0.87012
 Alpha virt. eigenvalues --    0.93501   1.05464   2.99009   4.83636   6.94363
 Alpha virt. eigenvalues --    7.82630   8.16007
          Condensed to atoms (all electrons):
              1          2          3          4          5          6
     1  Au  17.890433   0.163184   0.004395   0.233345   0.001777   0.224968
     2  Cl   0.163184   7.049512  -0.000001  -0.000411   0.000000   0.049683
     3  Cl   0.004395  -0.000001   7.003369  -0.120831   0.099230  -0.000357
     4  Cl   0.233345  -0.000411  -0.120831   7.332108  -0.024884   0.004796
     5  Cl   0.001777   0.000000   0.099230  -0.024884   6.939190   0.000001
     6  H    0.224968   0.049683  -0.000357   0.004796   0.000001   0.515598
 Mulliken atomic charges:
              1
     1  Au   0.481898
     2  Cl  -0.261966
     3  Cl   0.014195
     4  Cl  -0.424123
     5  Cl  -0.015313
     6  H    0.205310
 Sum of Mulliken atomic charges =   0.00000
 Mulliken charges with hydrogens summed into heavy atoms:
              1
     1  Au   0.687208
     2  Cl  -0.261966
     3  Cl   0.014195
     4  Cl  -0.424123
     5  Cl  -0.015313
 Sum of Mulliken charges with hydrogens summed into heavy atoms =   0.00000
 Electronic spatial extent (au):  <R**2>=           1265.1767
 Charge=              0.0000 electrons
 Dipole moment (field-independent basis, Debye):
    X=              3.5380    Y=             -0.4234    Z=              0.6191  Tot=              3.6166
 Quadrupole moment (field-independent basis, Debye-Ang):
   XX=            -85.5079   YY=            -76.7977   ZZ=            -70.8446
   XY=            -12.1233   XZ=             -1.6317   YZ=             -2.4268
 Traceless Quadrupole moment (field-independent basis, Debye-Ang):
   XX=             -7.7912   YY=              0.9190   ZZ=              6.8721
   XY=            -12.1233   XZ=             -1.6317   YZ=             -2.4268
 Octapole moment (field-independent basis, Debye-Ang**2):
  XXX=             87.8667  YYY=            -33.5951  ZZZ=              5.0222  XYY=             40.0244
  XXY=            -32.7057  XXZ=              5.2396  XZZ=             33.3407  YZZ=            -10.8040
  YYZ=              2.1736  XYZ=              0.5550
 Hexadecapole moment (field-independent basis, Debye-Ang**3):
 XXXX=          -2791.7011 YYYY=           -462.1270 ZZZZ=           -208.8418 XXXY=            -91.7543
 XXXZ=            -23.5230 YYYX=            -70.4615 YYYZ=             -7.2733 ZZZX=             -4.8064
 ZZZY=             -8.9541 XXYY=           -547.2413 XXZZ=           -467.1400 YYZZ=           -111.8012
 XXYZ=             -6.7920 YYXZ=             -0.6141 ZZXY=            -20.1969
 N-N= 1.386512251068D+02 E-N=-6.776910854522D+02  KE= 6.602072147897D+01


 FOR THE NATURE OF THE CHEMICAL BOND
 IS THE PROBLEM AT THE HEART OF ALL CHEMISTRY.

                     -- BRYCE CRAWFORD, JR., 1953
 Error termination request processed by link 9999.
 Error termination via Lnk1e in C:\G09W\l9999.exe at Sun Jan 24 03:45:50 2021.
 Job cpu time:  0 days  0 hours 10 minutes 50.0 seconds.
 File lengths (MBytes):  RWF=     66 Int=      0 D2E=      0 Chk=      3 Scr=      1
