 Entering Link 1 = C:\G09W\l1.exe PID=     11216.
  
 Copyright (c) 1988,1990,1992,1993,1995,1998,2003,2009, Gaussian, Inc.
                  All Rights Reserved.
  
 This is part of the Gaussian(R) 09 program.  It is based on
 the Gaussian(R) 03 system (copyright 2003, Gaussian, Inc.),
 the Gaussian(R) 98 system (copyright 1998, Gaussian, Inc.),
 the Gaussian(R) 94 system (copyright 1995, Gaussian, Inc.),
 the Gaussian 92(TM) system (copyright 1992, Gaussian, Inc.),
 the Gaussian 90(TM) system (copyright 1990, Gaussian, Inc.),
 the Gaussian 88(TM) system (copyright 1988, Gaussian, Inc.),
 the Gaussian 86(TM) system (copyright 1986, Carnegie Mellon
 University), and the Gaussian 82(TM) system (copyright 1983,
 Carnegie Mellon University). Gaussian is a federally registered
 trademark of Gaussian, Inc.
  
 This software contains proprietary and confidential information,
 including trade secrets, belonging to Gaussian, Inc.
  
 This software is provided under written license and may be
 used, copied, transmitted, or stored only in accord with that
 written license.
  
 The following legend is applicable only to US Government
 contracts under FAR:
  
                    RESTRICTED RIGHTS LEGEND
  
 Use, reproduction and disclosure by the US Government is
 subject to restrictions as set forth in subparagraphs (a)
 and (c) of the Commercial Computer Software - Restricted
 Rights clause in FAR 52.227-19.
  
 Gaussian, Inc.
 340 Quinnipiac St., Bldg. 40, Wallingford CT 06492
  
  
 ---------------------------------------------------------------
 Warning -- This program may not be used in any manner that
 competes with the business of Gaussian, Inc. or will provide
 assistance to any competitor of Gaussian, Inc.  The licensee
 of this program is prohibited from giving any competitor of
 Gaussian, Inc. access to this program.  By using this program,
 the user acknowledges that Gaussian, Inc. is engaged in the
 business of creating and licensing software in the field of
 computational chemistry and represents and warrants to the
 licensee that it is not a competitor of Gaussian, Inc. and that
 it will not use this program in any manner prohibited above.
 ---------------------------------------------------------------
  

 Cite this work as:
 Gaussian 09, Revision A.02,
 M. J. Frisch, G. W. Trucks, H. B. Schlegel, G. E. Scuseria, 
 M. A. Robb, J. R. Cheeseman, G. Scalmani, V. Barone, B. Mennucci, 
 G. A. Petersson, H. Nakatsuji, M. Caricato, X. Li, H. P. Hratchian, 
 A. F. Izmaylov, J. Bloino, G. Zheng, J. L. Sonnenberg, M. Hada, 
 M. Ehara, K. Toyota, R. Fukuda, J. Hasegawa, M. Ishida, T. Nakajima, 
 Y. Honda, O. Kitao, H. Nakai, T. Vreven, J. A. Montgomery, Jr., 
 J. E. Peralta, F. Ogliaro, M. Bearpark, J. J. Heyd, E. Brothers, 
 K. N. Kudin, V. N. Staroverov, R. Kobayashi, J. Normand, 
 K. Raghavachari, A. Rendell, J. C. Burant, S. S. Iyengar, J. Tomasi, 
 M. Cossi, N. Rega, J. M. Millam, M. Klene, J. E. Knox, J. B. Cross, 
 V. Bakken, C. Adamo, J. Jaramillo, R. Gomperts, R. E. Stratmann, 
 O. Yazyev, A. J. Austin, R. Cammi, C. Pomelli, J. W. Ochterski, 
 R. L. Martin, K. Morokuma, V. G. Zakrzewski, G. A. Voth, 
 P. Salvador, J. J. Dannenberg, S. Dapprich, A. D. Daniels, 
 O. Farkas, J. B. Foresman, J. V. Ortiz, J. Cioslowski, 
 and D. J. Fox, Gaussian, Inc., Wallingford CT, 2009.
 
 ******************************************
 Gaussian 09:  IA32W-G09RevA.02 11-Jun-2009
                08-Feb-2021 
 ******************************************
 %chk=D:\Documents\rayGit\FQ\quimicaComputacional\proyecto\decompositionHydrogenP
 eroxide\descompositionByRadicals\gasPhase\step4\ts\Q2ST\oxygen.chk
 %mem=1500MB
 %nprocshared=4
 Will use up to    4 processors via shared memory.
 ------------------------------------
 # opt freq=noraman 6-31+g(d,p) m062x
 ------------------------------------
 1/14=-1,18=20,19=15,26=3,38=1/1,3;
 2/9=110,12=2,17=6,18=5,40=1/2;
 3/5=1,6=6,7=111,11=2,16=1,25=1,30=1,71=1,74=-55/1,2,3;
 4//1;
 5/5=2,38=5/2;
 6/7=2,8=2,9=2,10=2,28=1/1;
 7//1,2,3,16;
 1/14=-1,18=20,19=15/3(2);
 2/9=110/2;
 99//99;
 2/9=110/2;
 3/5=1,6=6,7=111,11=2,16=1,25=1,30=1,71=1,74=-55/1,2,3;
 4/5=5,16=3/1;
 5/5=2,38=5/2;
 7//1,2,3,16;
 1/14=-1,18=20,19=15/3(-5);
 2/9=110/2;
 6/7=2,8=2,9=2,10=2,19=2,28=1/1;
 99/9=1/99;
 ------
 oxygen
 ------
 Symbolic Z-matrix:
 Charge =  0 Multiplicity = 1
 O                    -2.96642  -0.21657   0.66942 
 O                    -1.64642  -0.21657   0.66942 
 

 GradGradGradGradGradGradGradGradGradGradGradGradGradGradGradGradGradGrad
 Berny optimization.
 Initialization pass.
                           ----------------------------
                           !    Initial Parameters    !
                           ! (Angstroms and Degrees)  !
 --------------------------                            --------------------------
 ! Name  Definition              Value          Derivative Info.                !
 --------------------------------------------------------------------------------
 ! R1    R(1,2)                  1.32           estimate D2E/DX2                !
 --------------------------------------------------------------------------------
 Trust Radius=3.00D-01 FncErr=1.00D-07 GrdErr=1.00D-06
 Number of steps in this run=  20 maximum allowed number of steps= 100.
 GradGradGradGradGradGradGradGradGradGradGradGradGradGradGradGradGradGrad

                          Input orientation:                          
 ---------------------------------------------------------------------
 Center     Atomic      Atomic             Coordinates (Angstroms)
 Number     Number       Type             X           Y           Z
 ---------------------------------------------------------------------
      1          8           0       -2.966418   -0.216570    0.669422
      2          8           0       -1.646418   -0.216570    0.669422
 ---------------------------------------------------------------------
 Stoichiometry    O2
 Framework group  D*H[C*(O.O)]
 Deg. of freedom     1
 Full point group                 D*H     NOp   8
 Largest Abelian subgroup         D2H     NOp   8
 Largest concise Abelian subgroup C2      NOp   2
                         Standard orientation:                         
 ---------------------------------------------------------------------
 Center     Atomic      Atomic             Coordinates (Angstroms)
 Number     Number       Type             X           Y           Z
 ---------------------------------------------------------------------
      1          8           0        0.000000    0.000000    0.660000
      2          8           0        0.000000    0.000000   -0.660000
 ---------------------------------------------------------------------
 Rotational constants (GHZ):      0.0000000     36.2674819     36.2674819
 Standard basis: 6-31+G(d,p) (6D, 7F)
 There are    10 symmetry adapted basis functions of AG  symmetry.
 There are     1 symmetry adapted basis functions of B1G symmetry.
 There are     4 symmetry adapted basis functions of B2G symmetry.
 There are     4 symmetry adapted basis functions of B3G symmetry.
 There are     1 symmetry adapted basis functions of AU  symmetry.
 There are    10 symmetry adapted basis functions of B1U symmetry.
 There are     4 symmetry adapted basis functions of B2U symmetry.
 There are     4 symmetry adapted basis functions of B3U symmetry.
 Integral buffers will be    262144 words long.
 Raffenetti 2 integral format.
 Two-electron integral symmetry is turned on.
    38 basis functions,    64 primitive gaussians,    38 cartesian basis functions
     8 alpha electrons        8 beta electrons
       nuclear repulsion energy        25.6570767801 Hartrees.
 NAtoms=    2 NActive=    2 NUniq=    1 SFac= 3.00D+00 NAtFMM=   80 NAOKFM=F Big=F
 One-electron integrals computed using PRISM.
 NBasis=    38 RedAO= T  NBF=    10     1     4     4     1    10     4     4
 NBsUse=    38 1.00D-06 NBFU=    10     1     4     4     1    10     4     4
 Harris functional with IExCor= 1009 diagonalized for initial guess.
 ExpMin= 8.45D-02 ExpMax= 5.48D+03 ExpMxC= 8.25D+02 IAcc=2 IRadAn=         0 AccDes= 0.00D+00
 HarFok:  IExCor= 1009 AccDes= 0.00D+00 IRadAn=         0 IDoV= 1
 ScaDFX=  1.000000  1.000000  1.000000  1.000000
 FoFCou: FMM=F IPFlag=           0 FMFlag=      100000 FMFlg1=           0
         NFxFlg=           0 DoJE=T BraDBF=F KetDBF=T FulRan=T
         Omega=  0.000000  0.000000  1.000000  0.000000  0.000000 ICntrl=     500 IOpCl=  0
         NMat0=    1 NMatS0=    1 NMatT0=    0 NMatD0=    1 NMtDS0=    0 NMtDT0=    0
         I1Cent=           4 NGrid=           0.
 Petite list used in FoFCou.
 Initial guess orbital symmetries:
       Occupied  (SGG) (SGU) (SGG) (SGU) (SGG) (PIU) (PIU) (PIG)
       Virtual   (PIG) (SGU) (SGG) (PIU) (PIU) (SGU) (SGG) (PIG)
                 (PIG) (SGU) (SGU) (PIU) (PIU) (SGG) (PIG) (PIG)
                 (SGG) (PIU) (PIU) (DLTG) (DLTG) (SGU) (DLTU) (DLTU)
                 (SGG) (PIG) (PIG) (SGU) (SGG) (SGU)
 Requested convergence on RMS density matrix=1.00D-08 within 128 cycles.
 Requested convergence on MAX density matrix=1.00D-06.
 Requested convergence on             energy=1.00D-06.
 No special actions if energy rises.
 Keep R1 ints in memory in canonical form, NReq=1170768.
 Integral accuracy reduced to 1.0D-05 until final iterations.
 Initial convergence to 1.0D-05 achieved.  Increase integral accuracy.
 SCF Done:  E(RM062X) =  -150.185116329     A.U. after   11 cycles
             Convg  =    0.3499D-08             -V/T =  2.0104

 **********************************************************************

            Population analysis using the SCF density.

 **********************************************************************

 Orbital symmetries:
       Occupied  (SGG) (SGU) (SGG) (SGU) (SGG) (PIU) (PIU) (PIG)
       Virtual   (PIG) (SGU) (SGG) (PIU) (PIU) (SGG) (SGU) (PIG)
                 (PIG) (SGU) (SGU) (PIU) (PIU) (SGG) (PIG) (PIG)
                 (SGG) (PIU) (PIU) (SGU) (DLTG) (DLTG) (DLTU) (DLTU)
                 (SGG) (PIG) (PIG) (SGU) (SGG) (SGU)
 Unable to determine electronic state:  partially filled degenerate orbitals.
 Alpha  occ. eigenvalues --  -19.82920 -19.82882  -1.34447  -0.95503  -0.60475
 Alpha  occ. eigenvalues --   -0.58759  -0.55879  -0.37946
 Alpha virt. eigenvalues --   -0.16019   0.08208   0.10588   0.14925   0.15760
 Alpha virt. eigenvalues --    0.20913   0.21490   0.21870   0.22319   0.34678
 Alpha virt. eigenvalues --    1.06201   1.11193   1.12089   1.15857   1.19121
 Alpha virt. eigenvalues --    1.20310   1.22557   1.50933   1.53144   1.60479
 Alpha virt. eigenvalues --    1.62530   1.62791   1.92910   1.93196   2.27316
 Alpha virt. eigenvalues --    2.48545   2.51418   3.02325   3.62280   4.03041
          Condensed to atoms (all electrons):
              1          2
     1  O    7.662065   0.337935
     2  O    0.337935   7.662065
 Mulliken atomic charges:
              1
     1  O    0.000000
     2  O    0.000000
 Sum of Mulliken atomic charges =   0.00000
 Mulliken charges with hydrogens summed into heavy atoms:
              1
     1  O    0.000000
     2  O    0.000000
 Sum of Mulliken charges with hydrogens summed into heavy atoms =   0.00000
 Electronic spatial extent (au):  <R**2>=             48.0644
 Charge=              0.0000 electrons
 Dipole moment (field-independent basis, Debye):
    X=              0.0000    Y=              0.0000    Z=              0.0000  Tot=              0.0000
 Quadrupole moment (field-independent basis, Debye-Ang):
   XX=             -9.4756   YY=            -11.2586   ZZ=            -10.4376
   XY=              0.0000   XZ=              0.0000   YZ=              0.0000
 Traceless Quadrupole moment (field-independent basis, Debye-Ang):
   XX=              0.9150   YY=             -0.8680   ZZ=             -0.0469
   XY=              0.0000   XZ=              0.0000   YZ=              0.0000
 Octapole moment (field-independent basis, Debye-Ang**2):
  XXX=              0.0000  YYY=              0.0000  ZZZ=              0.0000  XYY=              0.0000
  XXY=              0.0000  XXZ=              0.0000  XZZ=              0.0000  YZZ=              0.0000
  YYZ=              0.0000  XYZ=              0.0000
 Hexadecapole moment (field-independent basis, Debye-Ang**3):
 XXXX=             -6.7461 YYYY=             -8.7301 ZZZZ=            -33.1390 XXXY=              0.0000
 XXXZ=              0.0000 YYYX=              0.0000 YYYZ=              0.0000 ZZZX=              0.0000
 ZZZY=              0.0000 XXYY=             -2.5793 XXZZ=             -6.4080 YYZZ=             -8.0407
 XXYZ=              0.0000 YYXZ=              0.0000 ZZXY=              0.0000
 N-N= 2.565707678012D+01 E-N=-4.054347746298D+02  KE= 1.486372818699D+02
 Symmetry AG   KE= 6.898710888128D+01
 Symmetry B1G  KE= 1.296372746677D-34
 Symmetry B2G  KE=-2.732982053088D-33
 Symmetry B3G  KE= 5.787870754636D+00
 Symmetry AU   KE= 2.685291391294D-34
 Symmetry B1U  KE= 6.491858474824D+01
 Symmetry B2U  KE= 4.581481285272D+00
 Symmetry B3U  KE= 4.362236200427D+00
 Calling FoFJK, ICntrl=      2127 FMM=F ISym2X=1 I1Cent= 0 IOpClX= 0 NMat=1 NMatS=1 NMatT=0.
 ***** Axes restored to original set *****
 -------------------------------------------------------------------
 Center     Atomic                   Forces (Hartrees/Bohr)
 Number     Number              X              Y              Z
 -------------------------------------------------------------------
      1        8           0.145341406    0.000000000    0.000000000
      2        8          -0.145341406    0.000000000    0.000000000
 -------------------------------------------------------------------
 Cartesian Forces:  Max     0.145341406 RMS     0.083912900

 GradGradGradGradGradGradGradGradGradGradGradGradGradGradGradGradGradGrad
 Berny optimization.
 Internal  Forces:  Max     0.145341406 RMS     0.145341406
 Search for a local minimum.
 Step number   1 out of a maximum of   20
 All quantities printed in internal units (Hartrees-Bohrs-Radians)
 Mixed Optimization -- RFO/linear search
 Second derivative matrix not updated -- first step.
 The second derivative matrix:
                          R1
           R1           0.61931
     Eigenvalues ---    0.61931
 RFO step:  Lambda=-3.24125703D-02 EMin= 6.19313727D-01
 Linear search not attempted -- first point.
 Iteration  1 RMS(Cart)=  0.14142136 RMS(Int)=  0.02300988
 Iteration  2 RMS(Cart)=  0.01627045 RMS(Int)=  0.00000000
 Iteration  3 RMS(Cart)=  0.00000000 RMS(Int)=  0.00000000
 ClnCor:  largest displacement from symmetrization is 4.44D-16 for atom     2.
 Variable       Old X    -DE/DX   Delta X   Delta X   Delta X     New X
                                 (Linear)    (Quad)   (Total)
    R1        2.49444  -0.14534   0.00000  -0.22301  -0.22301   2.27143
         Item               Value     Threshold  Converged?
 Maximum Force            0.145341     0.000450     NO 
 RMS     Force            0.145341     0.000300     NO 
 Maximum Displacement     0.111505     0.001800     NO 
 RMS     Displacement     0.157692     0.001200     NO 
 Predicted change in Energy=-1.701228D-02
 GradGradGradGradGradGradGradGradGradGradGradGradGradGradGradGradGradGrad

                          Input orientation:                          
 ---------------------------------------------------------------------
 Center     Atomic      Atomic             Coordinates (Angstroms)
 Number     Number       Type             X           Y           Z
 ---------------------------------------------------------------------
      1          8           0       -2.907412   -0.216570    0.669422
      2          8           0       -1.705424   -0.216570    0.669422
 ---------------------------------------------------------------------
 Stoichiometry    O2
 Framework group  D*H[C*(O.O)]
 Deg. of freedom     1
 Full point group                 D*H     NOp   8
 Largest Abelian subgroup         D2H     NOp   8
 Largest concise Abelian subgroup C2      NOp   2
                         Standard orientation:                         
 ---------------------------------------------------------------------
 Center     Atomic      Atomic             Coordinates (Angstroms)
 Number     Number       Type             X           Y           Z
 ---------------------------------------------------------------------
      1          8           0        0.000000    0.000000    0.600994
      2          8           0        0.000000    0.000000   -0.600994
 ---------------------------------------------------------------------
 Rotational constants (GHZ):      0.0000000     43.7385941     43.7385941
 Standard basis: 6-31+G(d,p) (6D, 7F)
 There are    10 symmetry adapted basis functions of AG  symmetry.
 There are     1 symmetry adapted basis functions of B1G symmetry.
 There are     4 symmetry adapted basis functions of B2G symmetry.
 There are     4 symmetry adapted basis functions of B3G symmetry.
 There are     1 symmetry adapted basis functions of AU  symmetry.
 There are    10 symmetry adapted basis functions of B1U symmetry.
 There are     4 symmetry adapted basis functions of B2U symmetry.
 There are     4 symmetry adapted basis functions of B3U symmetry.
 Integral buffers will be    262144 words long.
 Raffenetti 2 integral format.
 Two-electron integral symmetry is turned on.
    38 basis functions,    64 primitive gaussians,    38 cartesian basis functions
     8 alpha electrons        8 beta electrons
       nuclear repulsion energy        28.1761001408 Hartrees.
 NAtoms=    2 NActive=    2 NUniq=    1 SFac= 3.00D+00 NAtFMM=   80 NAOKFM=F Big=F
 One-electron integrals computed using PRISM.
 NBasis=    38 RedAO= T  NBF=    10     1     4     4     1    10     4     4
 NBsUse=    38 1.00D-06 NBFU=    10     1     4     4     1    10     4     4
 Initial guess read from the read-write file.
 B after Tr=     0.000000    0.000000    0.000000
         Rot=    1.000000    0.000000    0.000000    0.000000 Ang=   0.00 deg.
 Initial guess orbital symmetries:
       Occupied  (SGG) (SGU) (SGG) (SGU) (SGG) (PIU) (PIU) (?A)
       Virtual   (?A) (SGU) (SGG) (PIU) (PIU) (SGG) (SGU) (?A)
                 (?A) (SGU) (SGU) (PIU) (PIU) (SGG) (PIG) (PIG)
                 (SGG) (PIU) (PIU) (SGU) (DLTG) (DLTG) (DLTU) (DLTU)
                 (SGG) (?A) (?A) (SGU) (SGG) (SGU)
 Harris functional with IExCor= 1009 diagonalized for initial guess.
 ExpMin= 8.45D-02 ExpMax= 5.48D+03 ExpMxC= 8.25D+02 IAcc=2 IRadAn=         0 AccDes= 0.00D+00
 HarFok:  IExCor= 1009 AccDes= 0.00D+00 IRadAn=         0 IDoV= 1
 ScaDFX=  1.000000  1.000000  1.000000  1.000000
 FoFCou: FMM=F IPFlag=           0 FMFlag=      100000 FMFlg1=           0
         NFxFlg=           0 DoJE=T BraDBF=F KetDBF=T FulRan=T
         Omega=  0.000000  0.000000  1.000000  0.000000  0.000000 ICntrl=     500 IOpCl=  0
         NMat0=    1 NMatS0=    1 NMatT0=    0 NMatD0=    1 NMtDS0=    0 NMtDT0=    0
         I1Cent=           4 NGrid=           0.
 Petite list used in FoFCou.
 Requested convergence on RMS density matrix=1.00D-08 within 128 cycles.
 Requested convergence on MAX density matrix=1.00D-06.
 Requested convergence on             energy=1.00D-06.
 No special actions if energy rises.
 Keep R1 ints in memory in canonical form, NReq=1170768.
 Integral accuracy reduced to 1.0D-05 until final iterations.
 Initial convergence to 1.0D-05 achieved.  Increase integral accuracy.
 SCF Done:  E(RM062X) =  -150.204618170     A.U. after   13 cycles
             Convg  =    0.1120D-08             -V/T =  2.0081
 Calling FoFJK, ICntrl=      2127 FMM=F ISym2X=1 I1Cent= 0 IOpClX= 0 NMat=1 NMatS=1 NMatT=0.
 ***** Axes restored to original set *****
 -------------------------------------------------------------------
 Center     Atomic                   Forces (Hartrees/Bohr)
 Number     Number              X              Y              Z
 -------------------------------------------------------------------
      1        8           0.009757352    0.000000000    0.000000000
      2        8          -0.009757352    0.000000000    0.000000000
 -------------------------------------------------------------------
 Cartesian Forces:  Max     0.009757352 RMS     0.005633410

 GradGradGradGradGradGradGradGradGradGradGradGradGradGradGradGradGradGrad
 Berny optimization.
 Using GEDIIS/GDIIS optimizer.
 Internal  Forces:  Max     0.009757352 RMS     0.009757352
 Search for a local minimum.
 Step number   2 out of a maximum of   20
 All quantities printed in internal units (Hartrees-Bohrs-Radians)
 Mixed Optimization -- RFO/linear search
 Update second derivatives using D2CorX and points    1    2
 DE= -1.95D-02 DEPred=-1.70D-02 R= 1.15D+00
 SS=  1.41D+00  RLast= 2.23D-01 DXNew= 5.0454D-01 6.6903D-01
 Trust test= 1.15D+00 RLast= 2.23D-01 DXMaxT set to 5.05D-01
 The second derivative matrix:
                          R1
           R1           0.60797
 Use linear search instead of GDIIS.
     Eigenvalues ---    0.60797
 RFO step:  Lambda= 0.00000000D+00 EMin= 6.07973294D-01
 Quartic linear search produced a step of  0.04809.
 Iteration  1 RMS(Cart)=  0.00758338 RMS(Int)=  0.00000000
 Iteration  2 RMS(Cart)=  0.00000000 RMS(Int)=  0.00000000
 ClnCor:  largest displacement from symmetrization is 0.00D+00 for atom     0.
 Variable       Old X    -DE/DX   Delta X   Delta X   Delta X     New X
                                 (Linear)    (Quad)   (Total)
    R1        2.27143  -0.00976  -0.01072   0.00000  -0.01072   2.26070
         Item               Value     Threshold  Converged?
 Maximum Force            0.009757     0.000450     NO 
 RMS     Force            0.009757     0.000300     NO 
 Maximum Displacement     0.005362     0.001800     NO 
 RMS     Displacement     0.007583     0.001200     NO 
 Predicted change in Energy=-6.967979D-05
 GradGradGradGradGradGradGradGradGradGradGradGradGradGradGradGradGradGrad

                          Input orientation:                          
 ---------------------------------------------------------------------
 Center     Atomic      Atomic             Coordinates (Angstroms)
 Number     Number       Type             X           Y           Z
 ---------------------------------------------------------------------
      1          8           0       -2.904575   -0.216570    0.669422
      2          8           0       -1.708261   -0.216570    0.669422
 ---------------------------------------------------------------------
 Stoichiometry    O2
 Framework group  D*H[C*(O.O)]
 Deg. of freedom     1
 Full point group                 D*H     NOp   8
 Largest Abelian subgroup         D2H     NOp   8
 Largest concise Abelian subgroup C2      NOp   2
                         Standard orientation:                         
 ---------------------------------------------------------------------
 Center     Atomic      Atomic             Coordinates (Angstroms)
 Number     Number       Type             X           Y           Z
 ---------------------------------------------------------------------
      1          8           0        0.000000    0.000000    0.598157
      2          8           0        0.000000    0.000000   -0.598157
 ---------------------------------------------------------------------
 Rotational constants (GHZ):      0.0000000     44.1545600     44.1545600
 Standard basis: 6-31+G(d,p) (6D, 7F)
 There are    10 symmetry adapted basis functions of AG  symmetry.
 There are     1 symmetry adapted basis functions of B1G symmetry.
 There are     4 symmetry adapted basis functions of B2G symmetry.
 There are     4 symmetry adapted basis functions of B3G symmetry.
 There are     1 symmetry adapted basis functions of AU  symmetry.
 There are    10 symmetry adapted basis functions of B1U symmetry.
 There are     4 symmetry adapted basis functions of B2U symmetry.
 There are     4 symmetry adapted basis functions of B3U symmetry.
 Integral buffers will be    262144 words long.
 Raffenetti 2 integral format.
 Two-electron integral symmetry is turned on.
    38 basis functions,    64 primitive gaussians,    38 cartesian basis functions
     8 alpha electrons        8 beta electrons
       nuclear repulsion energy        28.3097642961 Hartrees.
 NAtoms=    2 NActive=    2 NUniq=    1 SFac= 3.00D+00 NAtFMM=   80 NAOKFM=F Big=F
 One-electron integrals computed using PRISM.
 NBasis=    38 RedAO= T  NBF=    10     1     4     4     1    10     4     4
 NBsUse=    38 1.00D-06 NBFU=    10     1     4     4     1    10     4     4
 Initial guess read from the read-write file.
 B after Tr=     0.000000    0.000000    0.000000
         Rot=    1.000000    0.000000    0.000000    0.000000 Ang=   0.00 deg.
 Initial guess orbital symmetries:
       Occupied  (SGG) (SGU) (SGG) (SGU) (SGG) (PIU) (PIU) (?A)
       Virtual   (?A) (SGU) (SGG) (PIU) (PIU) (SGG) (?A) (?A) (SGU)
                 (SGU) (SGU) (PIU) (PIU) (SGG) (PIG) (SGG) (PIG)
                 (PIU) (PIU) (DLTG) (DLTG) (SGU) (DLTU) (DLTU)
                 (SGG) (PIG) (PIG) (SGU) (SGG) (SGU)
 Requested convergence on RMS density matrix=1.00D-08 within 128 cycles.
 Requested convergence on MAX density matrix=1.00D-06.
 Requested convergence on             energy=1.00D-06.
 No special actions if energy rises.
 Keep R1 ints in memory in canonical form, NReq=1170768.
 SCF Done:  E(RM062X) =  -150.204669454     A.U. after    7 cycles
             Convg  =    0.2150D-08             -V/T =  2.0080
 Calling FoFJK, ICntrl=      2127 FMM=F ISym2X=1 I1Cent= 0 IOpClX= 0 NMat=1 NMatS=1 NMatT=0.
 ***** Axes restored to original set *****
 -------------------------------------------------------------------
 Center     Atomic                   Forces (Hartrees/Bohr)
 Number     Number              X              Y              Z
 -------------------------------------------------------------------
      1        8          -0.000261011    0.000000000    0.000000000
      2        8           0.000261011    0.000000000    0.000000000
 -------------------------------------------------------------------
 Cartesian Forces:  Max     0.000261011 RMS     0.000150695

 GradGradGradGradGradGradGradGradGradGradGradGradGradGradGradGradGradGrad
 Berny optimization.
 Using GEDIIS/GDIIS optimizer.
 Internal  Forces:  Max     0.000261011 RMS     0.000261011
 Search for a local minimum.
 Step number   3 out of a maximum of   20
 All quantities printed in internal units (Hartrees-Bohrs-Radians)
 Mixed Optimization -- En-DIIS/RFO-DIIS
 Update second derivatives using D2CorX and points    2    3
 DE= -5.13D-05 DEPred=-6.97D-05 R= 7.36D-01
 SS=  1.41D+00  RLast= 1.07D-02 DXNew= 8.4853D-01 3.2174D-02
 Trust test= 7.36D-01 RLast= 1.07D-02 DXMaxT set to 5.05D-01
 The second derivative matrix:
                          R1
           R1           0.93416
 Use linear search instead of GDIIS.
     Eigenvalues ---    0.93416
 RFO step:  Lambda= 0.00000000D+00 EMin= 9.34155038D-01
 Quartic linear search produced a step of -0.02555.
 Iteration  1 RMS(Cart)=  0.00019374 RMS(Int)=  0.00000000
 Iteration  2 RMS(Cart)=  0.00000000 RMS(Int)=  0.00000000
 ClnCor:  largest displacement from symmetrization is 2.22D-16 for atom     1.
 Variable       Old X    -DE/DX   Delta X   Delta X   Delta X     New X
                                 (Linear)    (Quad)   (Total)
    R1        2.26070   0.00026   0.00027   0.00000   0.00027   2.26098
         Item               Value     Threshold  Converged?
 Maximum Force            0.000261     0.000450     YES
 RMS     Force            0.000261     0.000300     YES
 Maximum Displacement     0.000137     0.001800     YES
 RMS     Displacement     0.000194     0.001200     YES
 Predicted change in Energy=-3.645055D-08
 Optimization completed.
    -- Stationary point found.
                           ----------------------------
                           !   Optimized Parameters   !
                           ! (Angstroms and Degrees)  !
 --------------------------                            --------------------------
 ! Name  Definition              Value          Derivative Info.                !
 --------------------------------------------------------------------------------
 ! R1    R(1,2)                  1.1963         -DE/DX =    0.0003              !
 --------------------------------------------------------------------------------
 GradGradGradGradGradGradGradGradGradGradGradGradGradGradGradGradGradGrad

                          Input orientation:                          
 ---------------------------------------------------------------------
 Center     Atomic      Atomic             Coordinates (Angstroms)
 Number     Number       Type             X           Y           Z
 ---------------------------------------------------------------------
      1          8           0       -2.904575   -0.216570    0.669422
      2          8           0       -1.708261   -0.216570    0.669422
 ---------------------------------------------------------------------
 Stoichiometry    O2
 Framework group  D*H[C*(O.O)]
 Deg. of freedom     1
 Full point group                 D*H     NOp   8
 Largest Abelian subgroup         D2H     NOp   8
 Largest concise Abelian subgroup C2      NOp   2
                         Standard orientation:                         
 ---------------------------------------------------------------------
 Center     Atomic      Atomic             Coordinates (Angstroms)
 Number     Number       Type             X           Y           Z
 ---------------------------------------------------------------------
      1          8           0        0.000000    0.000000    0.598157
      2          8           0        0.000000    0.000000   -0.598157
 ---------------------------------------------------------------------
 Rotational constants (GHZ):      0.0000000     44.1545600     44.1545600

 **********************************************************************

            Population analysis using the SCF density.

 **********************************************************************

 Orbital symmetries:
       Occupied  (SGG) (SGU) (SGG) (SGU) (SGG) (PIU) (PIU) (?A)
       Virtual   (?A) (SGU) (SGG) (PIU) (PIU) (SGG) (?A) (?A) (SGU)
                 (SGU) (SGU) (PIU) (PIU) (SGG) (PIG) (SGG) (PIG)
                 (PIU) (PIU) (DLTG) (DLTG) (SGU) (DLTU) (DLTU)
                 (SGG) (PIG) (PIG) (SGU) (SGG) (SGU)
 Unable to determine electronic state:  an orbital has unidentified symmetry.
 Alpha  occ. eigenvalues --  -19.81507 -19.81449  -1.43705  -0.91741  -0.62709
 Alpha  occ. eigenvalues --   -0.62574  -0.60449  -0.34241
 Alpha virt. eigenvalues --   -0.11993   0.10667   0.10797   0.14461   0.15444
 Alpha virt. eigenvalues --    0.20746   0.22215   0.22659   0.34932   0.35235
 Alpha virt. eigenvalues --    1.04586   1.11633   1.12833   1.12859   1.19089
 Alpha virt. eigenvalues --    1.19795   1.20208   1.55310   1.57270   1.57765
 Alpha virt. eigenvalues --    1.58016   1.64883   1.98257   1.98592   2.56450
 Alpha virt. eigenvalues --    2.62521   2.65392   2.97115   3.66541   4.06845
          Condensed to atoms (all electrons):
              1          2
     1  O    7.675366   0.324634
     2  O    0.324634   7.675366
 Mulliken atomic charges:
              1
     1  O    0.000000
     2  O    0.000000
 Sum of Mulliken atomic charges =   0.00000
 Mulliken charges with hydrogens summed into heavy atoms:
              1
     1  O    0.000000
     2  O    0.000000
 Sum of Mulliken charges with hydrogens summed into heavy atoms =   0.00000
 Electronic spatial extent (au):  <R**2>=             43.4925
 Charge=              0.0000 electrons
 Dipole moment (field-independent basis, Debye):
    X=              0.0000    Y=              0.0000    Z=              0.0000  Tot=              0.0000
 Quadrupole moment (field-independent basis, Debye-Ang):
   XX=            -11.0840   YY=             -9.2377   ZZ=            -10.6805
   XY=              0.0000   XZ=              0.0000   YZ=              0.0000
 Traceless Quadrupole moment (field-independent basis, Debye-Ang):
   XX=             -0.7499   YY=              1.0964   ZZ=             -0.3464
   XY=              0.0000   XZ=              0.0000   YZ=              0.0000
 Octapole moment (field-independent basis, Debye-Ang**2):
  XXX=              0.0000  YYY=              0.0000  ZZZ=              0.0000  XYY=              0.0000
  XXY=              0.0000  XXZ=              0.0000  XZZ=              0.0000  YZZ=              0.0000
  YYZ=              0.0000  XYZ=              0.0000
 Hexadecapole moment (field-independent basis, Debye-Ang**3):
 XXXX=             -8.5551 YYYY=             -6.3383 ZZZZ=            -29.0324 XXXY=              0.0000
 XXXZ=              0.0000 YYYX=              0.0000 YYYZ=              0.0000 ZZZX=              0.0000
 ZZZY=              0.0000 XXYY=             -2.4822 XXZZ=             -7.2577 YYZZ=             -5.6277
 XXYZ=              0.0000 YYXZ=              0.0000 ZZXY=              0.0000
 N-N= 2.830976429611D+01 E-N=-4.109271853028D+02  KE= 1.490137592796D+02
 Symmetry AG   KE= 6.929644482809D+01
 Symmetry B1G  KE= 2.061843125914D-34
 Symmetry B2G  KE= 5.882043297506D+00
 Symmetry B3G  KE= 2.617478811391D-32
 Symmetry AU   KE= 4.654579006063D-34
 Symmetry B1U  KE= 6.481712381338D+01
 Symmetry B2U  KE= 4.417212800254D+00
 Symmetry B3U  KE= 4.600934540371D+00
 1|1|UNPC-DESKTOP-319GPER|FOpt|RM062X|6-31+G(d,p)|O2|SAGAD|08-Feb-2021|
 0||# opt freq=noraman 6-31+g(d,p) m062x||oxygen||0,1|O,-2.9045745405,-
 0.21656968,0.66942194|O,-1.7082614595,-0.21656968,0.66942194||Version=
 IA32W-G09RevA.02|HF=-150.2046695|RMSD=2.150e-009|RMSF=1.507e-004|Dipol
 e=0.,0.,0.|Quadrupole=-0.2575752,0.8151195,-0.5575443,0.,0.,0.|PG=D*H 
 [C*(O1.O1)]||@


 IF NO USE IS MADE OF THE LABOR OF PAST AGES,
 THE WORLD MUST REMAIN ALWAYS IN THE INFANCY OF KNOWLEDGE.

                          -- CICERO
 Job cpu time:  0 days  0 hours  0 minutes  4.0 seconds.
 File lengths (MBytes):  RWF=      5 Int=      0 D2E=      0 Chk=      1 Scr=      1
 Normal termination of Gaussian 09 at Mon Feb 08 22:53:14 2021.
 Link1:  Proceeding to internal job step number  2.
 ----------------------------------------------------------------------
 #N Geom=AllCheck Guess=TCheck SCRF=Check GenChk RM062X/6-31+G(d,p) Fre
 q
 ----------------------------------------------------------------------
 1/10=4,29=7,30=1,38=1,40=1/1,3;
 2/12=2,40=1/2;
 3/5=1,6=6,7=111,11=2,14=-4,16=1,25=1,30=1,70=2,71=2,74=-55,116=1/1,2,3;
 4/5=101/1;
 5/5=2,98=1/2;
 8/6=4,10=90,11=11/1;
 11/6=1,8=1,9=11,15=111,16=1/1,2,10;
 10/6=1/2;
 6/7=2,8=2,9=2,10=2,18=1,28=1/1;
 7/8=1,10=1,25=1/1,2,3,16;
 1/10=4,30=1/3;
 99//99;
 ------
 oxygen
 ------
 Redundant internal coordinates taken from checkpoint file:
 D:\Documents\rayGit\FQ\quimicaComputacional\proyecto\decompositionHydrogenPeroxide\descompositionByRadicals\gasPhase\step4\ts\Q2ST\oxygen.chk
 Charge =  0 Multiplicity = 1
 O,0,-2.9045745405,-0.21656968,0.66942194
 O,0,-1.7082614595,-0.21656968,0.66942194
 Recover connectivity data from disk.

 GradGradGradGradGradGradGradGradGradGradGradGradGradGradGradGradGradGrad
 Berny optimization.
 Initialization pass.
                           ----------------------------
                           !    Initial Parameters    !
                           ! (Angstroms and Degrees)  !
 --------------------------                            --------------------------
 ! Name  Definition              Value          Derivative Info.                !
 --------------------------------------------------------------------------------
 ! R1    R(1,2)                  1.1963         calculate D2E/DX2 analytically  !
 --------------------------------------------------------------------------------
 Trust Radius=3.00D-01 FncErr=1.00D-07 GrdErr=1.00D-07
 Number of steps in this run=   2 maximum allowed number of steps=   2.
 GradGradGradGradGradGradGradGradGradGradGradGradGradGradGradGradGradGrad

                          Input orientation:                          
 ---------------------------------------------------------------------
 Center     Atomic      Atomic             Coordinates (Angstroms)
 Number     Number       Type             X           Y           Z
 ---------------------------------------------------------------------
      1          8           0       -2.904575   -0.216570    0.669422
      2          8           0       -1.708261   -0.216570    0.669422
 ---------------------------------------------------------------------
 Stoichiometry    O2
 Framework group  D*H[C*(O.O)]
 Deg. of freedom     1
 Full point group                 D*H     NOp   8
 Largest Abelian subgroup         D2H     NOp   8
 Largest concise Abelian subgroup C2      NOp   2
                         Standard orientation:                         
 ---------------------------------------------------------------------
 Center     Atomic      Atomic             Coordinates (Angstroms)
 Number     Number       Type             X           Y           Z
 ---------------------------------------------------------------------
      1          8           0        0.000000    0.000000    0.598157
      2          8           0        0.000000    0.000000   -0.598157
 ---------------------------------------------------------------------
 Rotational constants (GHZ):      0.0000000     44.1545600     44.1545600
 Standard basis: 6-31+G(d,p) (6D, 7F)
 There are    10 symmetry adapted basis functions of AG  symmetry.
 There are     1 symmetry adapted basis functions of B1G symmetry.
 There are     4 symmetry adapted basis functions of B2G symmetry.
 There are     4 symmetry adapted basis functions of B3G symmetry.
 There are     1 symmetry adapted basis functions of AU  symmetry.
 There are    10 symmetry adapted basis functions of B1U symmetry.
 There are     4 symmetry adapted basis functions of B2U symmetry.
 There are     4 symmetry adapted basis functions of B3U symmetry.
 Integral buffers will be    262144 words long.
 Raffenetti 2 integral format.
 Two-electron integral symmetry is turned on.
    38 basis functions,    64 primitive gaussians,    38 cartesian basis functions
     8 alpha electrons        8 beta electrons
       nuclear repulsion energy        28.3097642961 Hartrees.
 NAtoms=    2 NActive=    2 NUniq=    1 SFac= 3.00D+00 NAtFMM=   80 NAOKFM=F Big=F
 One-electron integrals computed using PRISM.
 NBasis=    38 RedAO= T  NBF=    10     1     4     4     1    10     4     4
 NBsUse=    38 1.00D-06 NBFU=    10     1     4     4     1    10     4     4
 Initial guess read from the checkpoint file:  D:\Documents\rayGit\FQ\quimicaComp
 utacional\proyecto\decompositionHydrogenPeroxide\descompositionByRadicals\gasPha
 se\step4\ts\Q2ST\oxygen.chk
 B after Tr=     0.000000    0.000000    0.000000
         Rot=    1.000000    0.000000    0.000000    0.000000 Ang=   0.00 deg.
 Initial guess orbital symmetries:
       Occupied  (SGG) (SGU) (SGG) (SGU) (SGG) (PIU) (PIU) (?A)
       Virtual   (?A) (SGU) (SGG) (PIU) (PIU) (SGG) (?A) (?A) (SGU)
                 (SGU) (SGU) (PIU) (PIU) (SGG) (PIG) (SGG) (PIG)
                 (PIU) (PIU) (DLTG) (DLTG) (SGU) (DLTU) (DLTU)
                 (SGG) (PIG) (PIG) (SGU) (SGG) (SGU)
 Requested convergence on RMS density matrix=1.00D-08 within 128 cycles.
 Requested convergence on MAX density matrix=1.00D-06.
 Requested convergence on             energy=1.00D-06.
 No special actions if energy rises.
 Keep R1 ints in memory in canonical form, NReq=1170768.
 SCF Done:  E(RM062X) =  -150.204669454     A.U. after    1 cycles
             Convg  =    0.1189D-09             -V/T =  2.0080
 Range of M.O.s used for correlation:     1    38
 NBasis=    38 NAE=     8 NBE=     8 NFC=     0 NFV=     0
 NROrb=     38 NOA=     8 NOB=     8 NVA=    30 NVB=    30

 **** Warning!!: The largest alpha MO coefficient is  0.16657119D+02

 Symmetrizing basis deriv contribution to polar:
 IMax=3 JMax=2 DiffMx= 0.00D+00
 G2DrvN: will do     3 centers at a time, making    1 passes doing MaxLOS=2.
 Calling FoFCou, ICntrl=  3107 FMM=F I1Cent=   0 AccDes= 0.00D+00.
 FoFDir/FoFCou used for L=0 through L=2.
 End of G2Drv Frequency-dependent properties file   721 does not exist.
 End of G2Drv Frequency-dependent properties file   722 does not exist.
          IDoAtm=11
          Differentiating once with respect to electric field.
                with respect to dipole field.
          Differentiating once with respect to nuclear coordinates.
          Keep R1 ints in memory in canonical form, NReq=1095667.
          There are     6 degrees of freedom in the 1st order CPHF.  IDoFFX=4.
      6 vectors produced by pass  0 Test12= 4.00D-15 1.67D-08 XBig12= 7.55D+00 2.35D+00.
 AX will form     6 AO Fock derivatives at one time.
      6 vectors produced by pass  1 Test12= 4.00D-15 1.67D-08 XBig12= 4.93D+00 1.24D+00.
      6 vectors produced by pass  2 Test12= 4.00D-15 1.67D-08 XBig12= 1.52D-01 1.79D-01.
      6 vectors produced by pass  3 Test12= 4.00D-15 1.67D-08 XBig12= 2.93D-03 2.73D-02.
      6 vectors produced by pass  4 Test12= 4.00D-15 1.67D-08 XBig12= 4.00D-05 3.17D-03.
      6 vectors produced by pass  5 Test12= 4.00D-15 1.67D-08 XBig12= 5.53D-07 2.92D-04.
      6 vectors produced by pass  6 Test12= 4.00D-15 1.67D-08 XBig12= 3.52D-09 2.56D-05.
      1 vectors produced by pass  7 Test12= 4.00D-15 1.67D-08 XBig12= 1.29D-11 1.21D-06.
      1 vectors produced by pass  8 Test12= 4.00D-15 1.67D-08 XBig12= 1.80D-14 6.20D-08.
 Inverted reduced A of dimension    44 with in-core refinement.
 Isotropic polarizability for W=    0.000000        8.08 Bohr**3.
 End of Minotr Frequency-dependent properties file   721 does not exist.
 End of Minotr Frequency-dependent properties file   722 does not exist.

 **********************************************************************

            Population analysis using the SCF density.

 **********************************************************************

 Orbital symmetries:
       Occupied  (SGG) (SGU) (SGG) (SGU) (SGG) (PIU) (PIU) (?A)
       Virtual   (?A) (SGU) (SGG) (PIU) (PIU) (SGG) (?A) (?A) (SGU)
                 (SGU) (SGU) (PIU) (PIU) (SGG) (PIG) (SGG) (PIG)
                 (PIU) (PIU) (DLTG) (DLTG) (SGU) (DLTU) (DLTU)
                 (SGG) (PIG) (PIG) (SGU) (SGG) (SGU)
 Unable to determine electronic state:  an orbital has unidentified symmetry.
 Alpha  occ. eigenvalues --  -19.81507 -19.81449  -1.43705  -0.91741  -0.62709
 Alpha  occ. eigenvalues --   -0.62574  -0.60449  -0.34241
 Alpha virt. eigenvalues --   -0.11993   0.10667   0.10797   0.14461   0.15444
 Alpha virt. eigenvalues --    0.20746   0.22215   0.22659   0.34932   0.35235
 Alpha virt. eigenvalues --    1.04586   1.11633   1.12833   1.12859   1.19089
 Alpha virt. eigenvalues --    1.19795   1.20208   1.55310   1.57270   1.57765
 Alpha virt. eigenvalues --    1.58016   1.64883   1.98257   1.98592   2.56450
 Alpha virt. eigenvalues --    2.62521   2.65392   2.97115   3.66541   4.06845
          Condensed to atoms (all electrons):
              1          2
     1  O    7.675366   0.324634
     2  O    0.324634   7.675366
 Mulliken atomic charges:
              1
     1  O    0.000000
     2  O    0.000000
 Sum of Mulliken atomic charges =   0.00000
 Mulliken charges with hydrogens summed into heavy atoms:
              1
     1  O    0.000000
     2  O    0.000000
 Sum of Mulliken charges with hydrogens summed into heavy atoms =   0.00000
 APT atomic charges:
              1
     1  O    0.000000
     2  O    0.000000
 Sum of APT charges=   0.00000
 APT Atomic charges with hydrogens summed into heavy atoms:
              1
     1  O    0.000000
     2  O    0.000000
 Sum of APT charges=   0.00000
 Electronic spatial extent (au):  <R**2>=             43.4925
 Charge=              0.0000 electrons
 Dipole moment (field-independent basis, Debye):
    X=              0.0000    Y=              0.0000    Z=              0.0000  Tot=              0.0000
 Quadrupole moment (field-independent basis, Debye-Ang):
   XX=            -11.0840   YY=             -9.2377   ZZ=            -10.6805
   XY=              0.0000   XZ=              0.0000   YZ=              0.0000
 Traceless Quadrupole moment (field-independent basis, Debye-Ang):
   XX=             -0.7499   YY=              1.0964   ZZ=             -0.3464
   XY=              0.0000   XZ=              0.0000   YZ=              0.0000
 Octapole moment (field-independent basis, Debye-Ang**2):
  XXX=              0.0000  YYY=              0.0000  ZZZ=              0.0000  XYY=              0.0000
  XXY=              0.0000  XXZ=              0.0000  XZZ=              0.0000  YZZ=              0.0000
  YYZ=              0.0000  XYZ=              0.0000
 Hexadecapole moment (field-independent basis, Debye-Ang**3):
 XXXX=             -8.5551 YYYY=             -6.3383 ZZZZ=            -29.0324 XXXY=              0.0000
 XXXZ=              0.0000 YYYX=              0.0000 YYYZ=              0.0000 ZZZX=              0.0000
 ZZZY=              0.0000 XXYY=             -2.4822 XXZZ=             -7.2577 YYZZ=             -5.6277
 XXYZ=              0.0000 YYXZ=              0.0000 ZZXY=              0.0000
 N-N= 2.830976429611D+01 E-N=-4.109271853037D+02  KE= 1.490137592816D+02
 Symmetry AG   KE= 6.929644483297D+01
 Symmetry B1G  KE= 2.061843125216D-34
 Symmetry B2G  KE= 5.882043291407D+00
 Symmetry B3G  KE= 6.689749534830D-33
 Symmetry AU   KE= 4.654579005480D-34
 Symmetry B1U  KE= 6.481712381756D+01
 Symmetry B2U  KE= 4.417212800910D+00
 Symmetry B3U  KE= 4.600934538775D+00
  Exact polarizability:   5.870   0.000   5.360   0.000   0.000  13.009
 Approx polarizability:   5.602   0.000   6.278   0.000   0.000  18.541
 Calling FoFJK, ICntrl=    100127 FMM=F ISym2X=1 I1Cent= 0 IOpClX= 0 NMat=1 NMatS=1 NMatT=0.
 Full mass-weighted force constant matrix:
 Low frequencies ---  -16.8908    0.0017    0.0018    0.0022  125.5348 1774.8154
 Diagonal vibrational polarizability:
        0.0000000       0.0000000       0.0000000
 Harmonic frequencies (cm**-1), IR intensities (KM/Mole), Raman scattering
 activities (A**4/AMU), depolarization ratios for plane and unpolarized
 incident light, reduced masses (AMU), force constants (mDyne/A),
 and normal coordinates:
                     1
                    SGG
 Frequencies --  1774.8154
 Red. masses --    15.9949
 Frc consts  --    29.6851
 IR Inten    --     0.0000
  Atom  AN      X      Y      Z
     1   8     0.00   0.00   0.71
     2   8     0.00   0.00  -0.71

 -------------------
 - Thermochemistry -
 -------------------
 Temperature   298.150 Kelvin.  Pressure   1.00000 Atm.
 Atom     1 has atomic number  8 and mass  15.99491
 Atom     2 has atomic number  8 and mass  15.99491
 Molecular mass:    31.98983 amu.
 Principal axes and moments of inertia in atomic units:
                           1         2         3
     Eigenvalues --     0.00000  40.87327  40.87327
           X            0.00000   0.00000   1.00000
           Y            0.00000   1.00000   0.00000
           Z            1.00000   0.00000   0.00000
 This molecule is a prolate symmetric top.
 Rotational symmetry number  2.
 Rotational temperature (Kelvin)      2.11908
 Rotational constant (GHZ):          44.154560
 Zero-point vibrational energy      10615.8 (Joules/Mol)
                                    2.53723 (Kcal/Mol)
 Vibrational temperatures:   2553.56
          (Kelvin)
 
 Zero-point correction=                           0.004043 (Hartree/Particle)
 Thermal correction to Energy=                    0.006405
 Thermal correction to Enthalpy=                  0.007350
 Thermal correction to Gibbs Free Energy=        -0.014870
 Sum of electronic and zero-point Energies=           -150.200626
 Sum of electronic and thermal Energies=              -150.198264
 Sum of electronic and thermal Enthalpies=            -150.197320
 Sum of electronic and thermal Free Energies=         -150.219539
 
                     E (Thermal)             CV                S
                      KCal/Mol        Cal/Mol-Kelvin    Cal/Mol-Kelvin
 Total                    4.019              4.996             46.764
 Electronic               0.000              0.000              0.000
 Translational            0.889              2.981             36.321
 Rotational               0.592              1.987             10.440
 Vibrational              2.538              0.028              0.004
                       Q            Log10(Q)             Ln(Q)
 Total Bot       0.691060D+07          6.839516         15.748567
 Total V=0       0.500395D+09          8.699313         20.030908
 Vib (Bot)       0.138129D-01         -1.859715         -4.282151
 Vib (V=0)       0.100019D+01          0.000083          0.000191
 Electronic      0.100000D+01          0.000000          0.000000
 Translational   0.711169D+07          6.851973         15.777251
 Rotational      0.703489D+02          1.847257          4.253466
 ***** Axes restored to original set *****
 -------------------------------------------------------------------
 Center     Atomic                   Forces (Hartrees/Bohr)
 Number     Number              X              Y              Z
 -------------------------------------------------------------------
      1        8          -0.000261011    0.000000000    0.000000000
      2        8           0.000261011    0.000000000    0.000000000
 -------------------------------------------------------------------
 Cartesian Forces:  Max     0.000261011 RMS     0.000150695

 GradGradGradGradGradGradGradGradGradGradGradGradGradGradGradGradGradGrad
 Berny optimization.
 Internal  Forces:  Max     0.000261011 RMS     0.000261011
 Search for a local minimum.
 Step number   1 out of a maximum of    2
 All quantities printed in internal units (Hartrees-Bohrs-Radians)
 Second derivative matrix not updated -- analytic derivatives used.
 The second derivative matrix:
                          R1
           R1           0.95334
     Eigenvalues ---    0.95334
 Angle between quadratic step and forces=   0.00 degrees.
 Linear search not attempted -- first point.
 Iteration  1 RMS(Cart)=  0.00019359 RMS(Int)=  0.00000000
 Iteration  2 RMS(Cart)=  0.00000000 RMS(Int)=  0.00000000
 ClnCor:  largest displacement from symmetrization is 4.44D-16 for atom     2.
 Variable       Old X    -DE/DX   Delta X   Delta X   Delta X     New X
                                 (Linear)    (Quad)   (Total)
    R1        2.26070   0.00026   0.00000   0.00027   0.00027   2.26098
         Item               Value     Threshold  Converged?
 Maximum Force            0.000261     0.000450     YES
 RMS     Force            0.000261     0.000300     YES
 Maximum Displacement     0.000137     0.001800     YES
 RMS     Displacement     0.000194     0.001200     YES
 Predicted change in Energy=-3.573030D-08
 Optimization completed.
    -- Stationary point found.
                           ----------------------------
                           !   Optimized Parameters   !
                           ! (Angstroms and Degrees)  !
 --------------------------                            --------------------------
 ! Name  Definition              Value          Derivative Info.                !
 --------------------------------------------------------------------------------
 ! R1    R(1,2)                  1.1963         -DE/DX =    0.0003              !
 --------------------------------------------------------------------------------
 GradGradGradGradGradGradGradGradGradGradGradGradGradGradGradGradGradGrad

 1|1|UNPC-DESKTOP-319GPER|Freq|RM062X|6-31+G(d,p)|O2|SAGAD|08-Feb-2021|
 0||#N Geom=AllCheck Guess=TCheck SCRF=Check GenChk RM062X/6-31+G(d,p) 
 Freq||oxygen||0,1|O,-2.9045745405,-0.21656968,0.66942194|O,-1.70826145
 95,-0.21656968,0.66942194||Version=IA32W-G09RevA.02|HF=-150.2046695|RM
 SD=1.189e-010|RMSF=1.507e-004|ZeroPoint=0.0040433|Thermal=0.0064053|Di
 pole=0.,0.,0.|DipoleDeriv=0.,0.,0.,0.,0.,0.,0.,0.,0.,0.,0.,0.,0.,0.,0.
 ,0.,0.,0.|Polar=13.0085331,0.,5.3595317,0.,0.,5.8701528|PG=D*H [C*(O1.
 O1)]|NImag=0||0.95334429,0.,-0.00008635,0.,0.,0.00476949,-0.95334429,0
 .,0.,0.95334429,0.,0.00008635,0.,0.,-0.00008635,0.,0.,-0.00476949,0.,0
 .,0.00476949||0.00026101,0.,0.,-0.00026101,0.,0.|||@


 A HARD FALL SHOULD MEAN A HIGH BOUNCE 
 IF ONE IS MADE OF THE RIGHT MATERIAL.

                -- THE CHEMIST ANALYST, MARCH 1950
 Job cpu time:  0 days  0 hours  0 minutes  3.0 seconds.
 File lengths (MBytes):  RWF=      5 Int=      0 D2E=      0 Chk=      1 Scr=      1
 Normal termination of Gaussian 09 at Mon Feb 08 22:53:17 2021.
