 Entering Link 1 = C:\G09W\l1.exe PID=      8652.
  
 Copyright (c) 1988,1990,1992,1993,1995,1998,2003,2009, Gaussian, Inc.
                  All Rights Reserved.
  
 This is part of the Gaussian(R) 09 program.  It is based on
 the Gaussian(R) 03 system (copyright 2003, Gaussian, Inc.),
 the Gaussian(R) 98 system (copyright 1998, Gaussian, Inc.),
 the Gaussian(R) 94 system (copyright 1995, Gaussian, Inc.),
 the Gaussian 92(TM) system (copyright 1992, Gaussian, Inc.),
 the Gaussian 90(TM) system (copyright 1990, Gaussian, Inc.),
 the Gaussian 88(TM) system (copyright 1988, Gaussian, Inc.),
 the Gaussian 86(TM) system (copyright 1986, Carnegie Mellon
 University), and the Gaussian 82(TM) system (copyright 1983,
 Carnegie Mellon University). Gaussian is a federally registered
 trademark of Gaussian, Inc.
  
 This software contains proprietary and confidential information,
 including trade secrets, belonging to Gaussian, Inc.
  
 This software is provided under written license and may be
 used, copied, transmitted, or stored only in accord with that
 written license.
  
 The following legend is applicable only to US Government
 contracts under FAR:
  
                    RESTRICTED RIGHTS LEGEND
  
 Use, reproduction and disclosure by the US Government is
 subject to restrictions as set forth in subparagraphs (a)
 and (c) of the Commercial Computer Software - Restricted
 Rights clause in FAR 52.227-19.
  
 Gaussian, Inc.
 340 Quinnipiac St., Bldg. 40, Wallingford CT 06492
  
  
 ---------------------------------------------------------------
 Warning -- This program may not be used in any manner that
 competes with the business of Gaussian, Inc. or will provide
 assistance to any competitor of Gaussian, Inc.  The licensee
 of this program is prohibited from giving any competitor of
 Gaussian, Inc. access to this program.  By using this program,
 the user acknowledges that Gaussian, Inc. is engaged in the
 business of creating and licensing software in the field of
 computational chemistry and represents and warrants to the
 licensee that it is not a competitor of Gaussian, Inc. and that
 it will not use this program in any manner prohibited above.
 ---------------------------------------------------------------
  

 Cite this work as:
 Gaussian 09, Revision A.02,
 M. J. Frisch, G. W. Trucks, H. B. Schlegel, G. E. Scuseria, 
 M. A. Robb, J. R. Cheeseman, G. Scalmani, V. Barone, B. Mennucci, 
 G. A. Petersson, H. Nakatsuji, M. Caricato, X. Li, H. P. Hratchian, 
 A. F. Izmaylov, J. Bloino, G. Zheng, J. L. Sonnenberg, M. Hada, 
 M. Ehara, K. Toyota, R. Fukuda, J. Hasegawa, M. Ishida, T. Nakajima, 
 Y. Honda, O. Kitao, H. Nakai, T. Vreven, J. A. Montgomery, Jr., 
 J. E. Peralta, F. Ogliaro, M. Bearpark, J. J. Heyd, E. Brothers, 
 K. N. Kudin, V. N. Staroverov, R. Kobayashi, J. Normand, 
 K. Raghavachari, A. Rendell, J. C. Burant, S. S. Iyengar, J. Tomasi, 
 M. Cossi, N. Rega, J. M. Millam, M. Klene, J. E. Knox, J. B. Cross, 
 V. Bakken, C. Adamo, J. Jaramillo, R. Gomperts, R. E. Stratmann, 
 O. Yazyev, A. J. Austin, R. Cammi, C. Pomelli, J. W. Ochterski, 
 R. L. Martin, K. Morokuma, V. G. Zakrzewski, G. A. Voth, 
 P. Salvador, J. J. Dannenberg, S. Dapprich, A. D. Daniels, 
 O. Farkas, J. B. Foresman, J. V. Ortiz, J. Cioslowski, 
 and D. J. Fox, Gaussian, Inc., Wallingford CT, 2009.
 
 ******************************************
 Gaussian 09:  IA32W-G09RevA.02 11-Jun-2009
                08-Feb-2021 
 ******************************************
 %chk=D:\Documents\rayGit\FQ\quimicaComputacional\proyecto\decompositionHydrogenP
 eroxide\descompositionByRadicals\gasPhase\step4\ts\Q2ST\tsM062X.chk
 %mem=1500mb
 %nproc=4
 Will use up to    4 processors via shared memory.
 ----------------------------------------------------------------
 # opt=(calcfc,qst2,maxcycles=100) freq=noraman m062x/6-31+g(d,p)
 ----------------------------------------------------------------
 1/5=1,6=100,10=4,14=-1,18=20,26=3,27=202,38=1/1,3;
 2/9=110,12=2,17=6,18=5,40=1/2;
 3/5=1,6=6,7=111,11=2,16=1,25=1,30=1,71=2,74=-55/1,2,3;
 4//1;
 5/5=2,38=5/2;
 8/6=4,10=90,11=11/1;
 11/6=1,8=1,9=11,15=111,16=1/1,2,10;
 10/6=1,7=6,13=1/2;
 6/7=2,8=2,9=2,10=2,28=1/1;
 7/10=1,18=20,25=1/1,2,3,16;
 1/5=1,6=100,10=4,14=-1,18=20,27=202/3(2);
 2/9=110/2;
 99//99;
 2/9=110/2;
 3/5=1,6=6,7=111,11=2,16=1,25=1,30=1,71=1,74=-55/1,2,3;
 4/5=5,16=3/1;
 5/5=2,38=5/2;
 7//1,2,3,16;
 1/5=1,6=100,14=-1,18=20,27=202/3(-5);
 2/9=110/2;
 6/7=2,8=2,9=2,10=2,19=2,28=1/1;
 99/9=1/99;
 -
 r
 -
 Symbolic Z-matrix:
 Charge =  0 Multiplicity = 1
 O                    -0.65177  -0.0075    0. 
 O                     0.66823  -0.0075    0. 
 H                     0.98823   0.8976    0. 
 O                     1.60157   2.63237   0. 
 H                     0.8549    3.23576   0. 
 
 -
 p
 -
 Symbolic Z-matrix:
 Charge =  0 Multiplicity = 1
 O                    -0.65177  -0.0075    0. 
 O                     0.54133  -0.0075    0. 
 H                     1.28157   1.72727   0. 
 O                     1.60157   2.63237   0. 
 H                     0.8549    3.23576   0. 
 
 Iteration  1 RMS(Cart)=  0.06324108 RMS(Int)=  0.30788463
 Iteration  2 RMS(Cart)=  0.05957854 RMS(Int)=  0.21366634
 Iteration  3 RMS(Cart)=  0.05932432 RMS(Int)=  0.11957044
 Iteration  4 RMS(Cart)=  0.05929869 RMS(Int)=  0.02680689
 Iteration  5 RMS(Cart)=  0.02103578 RMS(Int)=  0.00001981
 Iteration  6 RMS(Cart)=  0.00001984 RMS(Int)=  0.00000000
 Iteration  7 RMS(Cart)=  0.00000000 RMS(Int)=  0.00000000

 GradGradGradGradGradGradGradGradGradGradGradGradGradGradGradGradGradGrad
 Berny optimization.
 Initialization pass.
                           ----------------------------
                           !    Initial Parameters    !
                           ! (Angstroms and Degrees)  !
 --------------------------                            --------------------------
 ! Name  Definition        TS        Reactant  Product Derivative Info.         !
 --------------------------------------------------------------------------------
 ! R1    R(1,2)             1.2566    1.32      1.1931 calculate D2E/DX2 analyti!
 ! R2    R(2,3)             1.423     0.96      1.8861 calculate D2E/DX2 analyti!
 ! R3    R(3,4)             1.4       1.84      0.96   calculate D2E/DX2 analyti!
 ! R4    R(4,5)             0.96      0.96      0.96   calculate D2E/DX2 analyti!
 ! A1    A(1,2,3)         111.2897  109.4712  113.1082 calculate D2E/DX2 analyti!
 ! A2    A(3,4,5)         109.4712  109.4712  109.4712 calculate D2E/DX2 analyti!
 ! A3    L(2,3,4,1,-1)    178.1815  180.0     176.3631 calculate D2E/DX2 analyti!
 ! A4    L(2,3,4,1,-2)    180.0     180.0     180.0    calculate D2E/DX2 analyti!
 ! D1    D(1,2,4,5)         0.0       0.0       0.0    calculate D2E/DX2 analyti!
 --------------------------------------------------------------------------------
 Trust Radius=3.00D-01 FncErr=1.00D-07 GrdErr=1.00D-06
 Number of steps in this run= 100 maximum allowed number of steps= 100.
 Search for a saddle point of order  1.
 GradGradGradGradGradGradGradGradGradGradGradGradGradGradGradGradGradGrad

                          Input orientation:                          
 ---------------------------------------------------------------------
 Center     Atomic      Atomic             Coordinates (Angstroms)
 Number     Number       Type             X           Y           Z
 ---------------------------------------------------------------------
      1          8           0       -0.678593   -0.076767    0.000000
      2          8           0        0.577855   -0.092732    0.000000
      3          1           0        1.111347    1.226531    0.000000
      4          8           0        1.594746    2.540428    0.000000
      5          1           0        0.855807    3.153264    0.000000
 ---------------------------------------------------------------------
                    Distance matrix (angstroms):
                    1          2          3          4          5
     1  O    0.000000
     2  O    1.256550   0.000000
     3  H    2.214152   1.423049   0.000000
     4  O    3.466667   2.822694   1.400000   0.000000
     5  H    3.575959   3.257875   1.943605   0.960000   0.000000
 Stoichiometry    H2O3
 Framework group  CS[SG(H2O3)]
 Deg. of freedom     7
 Full point group                 CS      NOp   2
 Largest Abelian subgroup         CS      NOp   2
 Largest concise Abelian subgroup C1      NOp   1
                         Standard orientation:                         
 ---------------------------------------------------------------------
 Center     Atomic      Atomic             Coordinates (Angstroms)
 Number     Number       Type             X           Y           Z
 ---------------------------------------------------------------------
      1          8           0        0.000000    1.556850    0.000000
      2          8           0        0.799106    0.587135    0.000000
      3          1           0        0.104432   -0.654838    0.000000
      4          8           0       -0.617420   -1.854392    0.000000
      5          1           0       -1.557923   -1.661901    0.000000
 ---------------------------------------------------------------------
 Rotational constants (GHZ):     50.2455809      4.5503518      4.1724825
 Standard basis: 6-31+G(d,p) (6D, 7F)
 There are    50 symmetry adapted basis functions of A'  symmetry.
 There are    17 symmetry adapted basis functions of A"  symmetry.
 Integral buffers will be    262144 words long.
 Raffenetti 2 integral format.
 Two-electron integral symmetry is turned on.
    67 basis functions,   110 primitive gaussians,    67 cartesian basis functions
    13 alpha electrons       13 beta electrons
       nuclear repulsion energy        63.7964147755 Hartrees.
 NAtoms=    5 NActive=    5 NUniq=    5 SFac= 7.50D-01 NAtFMM=   80 NAOKFM=F Big=F
 One-electron integrals computed using PRISM.
 NBasis=    67 RedAO= T  NBF=    50    17
 NBsUse=    67 1.00D-06 NBFU=    50    17
 Harris functional with IExCor= 1009 diagonalized for initial guess.
 ExpMin= 8.45D-02 ExpMax= 5.48D+03 ExpMxC= 8.25D+02 IAcc=2 IRadAn=         0 AccDes= 0.00D+00
 HarFok:  IExCor= 1009 AccDes= 0.00D+00 IRadAn=         0 IDoV= 1
 ScaDFX=  1.000000  1.000000  1.000000  1.000000
 FoFCou: FMM=F IPFlag=           0 FMFlag=      100000 FMFlg1=           0
         NFxFlg=           0 DoJE=T BraDBF=F KetDBF=T FulRan=T
         Omega=  0.000000  0.000000  1.000000  0.000000  0.000000 ICntrl=     500 IOpCl=  0
         NMat0=    1 NMatS0=    1 NMatT0=    0 NMatD0=    1 NMtDS0=    0 NMtDT0=    0
         I1Cent=           4 NGrid=           0.
 Petite list used in FoFCou.
 Initial guess orbital symmetries:
       Occupied  (A') (A') (A') (A') (A') (A') (A') (A') (A') (A")
                 (A') (A") (A')
       Virtual   (A") (A') (A') (A') (A") (A') (A') (A') (A") (A')
                 (A') (A') (A") (A') (A') (A') (A') (A') (A') (A")
                 (A") (A') (A') (A') (A') (A") (A') (A') (A') (A")
                 (A') (A') (A") (A") (A') (A') (A") (A') (A") (A')
                 (A') (A") (A') (A') (A") (A') (A") (A') (A') (A')
                 (A') (A') (A') (A')
 The electronic state of the initial guess is 1-A'.
 Requested convergence on RMS density matrix=1.00D-08 within 128 cycles.
 Requested convergence on MAX density matrix=1.00D-06.
 Requested convergence on             energy=1.00D-06.
 No special actions if energy rises.
 Keep R1 ints in memory in canonical form, NReq=3551239.
 Integral accuracy reduced to 1.0D-05 until final iterations.
 Initial convergence to 1.0D-05 achieved.  Increase integral accuracy.
 SCF Done:  E(RM062X) =  -226.516156530     A.U. after   22 cycles
             Convg  =    0.4389D-08             -V/T =  2.0102
 Range of M.O.s used for correlation:     1    67
 NBasis=    67 NAE=    13 NBE=    13 NFC=     0 NFV=     0
 NROrb=     67 NOA=    13 NOB=    13 NVA=    54 NVB=    54

 **** Warning!!: The largest alpha MO coefficient is  0.16471455D+02

 Symmetrizing basis deriv contribution to polar:
 IMax=3 JMax=2 DiffMx= 0.00D+00
 G2DrvN: will do     6 centers at a time, making    1 passes doing MaxLOS=2.
 Calling FoFCou, ICntrl=  3107 FMM=F I1Cent=   0 AccDes= 0.00D+00.
 FoFDir/FoFCou used for L=0 through L=2.
 End of G2Drv Frequency-dependent properties file   721 does not exist.
 End of G2Drv Frequency-dependent properties file   722 does not exist.
          IDoAtm=11111
          Differentiating once with respect to nuclear coordinates.
          Keep R1 ints in memory in canonical form, NReq=3416970.
          There are    18 degrees of freedom in the 1st order CPHF.  IDoFFX=5.
     12 vectors produced by pass  0 Test12= 3.90D-11 5.56D-07 XBig12= 8.86D-02 1.63D-01.
 AX will form    12 AO Fock derivatives at one time.
     12 vectors produced by pass  1 Test12= 3.90D-11 5.56D-07 XBig12= 1.16D-02 4.24D-02.
     12 vectors produced by pass  2 Test12= 3.90D-11 5.56D-07 XBig12= 4.32D-04 6.02D-03.
     12 vectors produced by pass  3 Test12= 3.90D-11 5.56D-07 XBig12= 2.56D-06 4.96D-04.
     12 vectors produced by pass  4 Test12= 3.90D-11 5.56D-07 XBig12= 3.91D-08 5.28D-05.
      8 vectors produced by pass  5 Test12= 3.90D-11 5.56D-07 XBig12= 4.60D-10 5.09D-06.
 Inverted reduced A of dimension    68 with in-core refinement.
 End of Minotr Frequency-dependent properties file   721 does not exist.
 End of Minotr Frequency-dependent properties file   722 does not exist.

 **********************************************************************

            Population analysis using the SCF density.

 **********************************************************************

 Orbital symmetries:
       Occupied  (A') (A') (A') (A') (A') (A') (A') (A') (A") (A')
                 (A') (A') (A")
       Virtual   (A") (A') (A') (A') (A") (A') (A') (A') (A") (A')
                 (A') (A") (A') (A') (A') (A') (A') (A') (A") (A')
                 (A') (A') (A") (A') (A') (A") (A') (A') (A') (A")
                 (A') (A") (A') (A') (A") (A") (A') (A') (A") (A')
                 (A') (A") (A') (A") (A') (A') (A") (A') (A') (A')
                 (A') (A') (A') (A')
 The electronic state is 1-A'.
 Alpha  occ. eigenvalues --  -19.90552 -19.89640 -19.61231  -1.46613  -1.03881
 Alpha  occ. eigenvalues --   -1.01547  -0.71204  -0.68307  -0.65181  -0.50639
 Alpha  occ. eigenvalues --   -0.45002  -0.36777  -0.33678
 Alpha virt. eigenvalues --   -0.21175   0.05183   0.06302   0.10786   0.11451
 Alpha virt. eigenvalues --    0.16270   0.17231   0.18269   0.19151   0.20684
 Alpha virt. eigenvalues --    0.21746   0.23411   0.25506   0.29326   0.32222
 Alpha virt. eigenvalues --    0.34817   0.98717   1.04126   1.05775   1.07572
 Alpha virt. eigenvalues --    1.08262   1.11740   1.12775   1.20881   1.23129
 Alpha virt. eigenvalues --    1.23961   1.25627   1.30056   1.38523   1.44516
 Alpha virt. eigenvalues --    1.47437   1.49938   1.55711   1.60019   1.64927
 Alpha virt. eigenvalues --    1.76927   1.77126   1.82726   1.89076   2.09826
 Alpha virt. eigenvalues --    2.29776   2.33879   2.35845   2.49052   2.50875
 Alpha virt. eigenvalues --    2.56321   2.72852   2.81149   2.94855   3.28044
 Alpha virt. eigenvalues --    3.55386   3.70160   4.02015   4.09522
          Condensed to atoms (all electrons):
              1          2          3          4          5
     1  O    7.550394   0.366229   0.002855   0.020638  -0.000741
     2  O    0.366229   7.644560  -0.019128  -0.042678   0.002416
     3  H    0.002855  -0.019128   0.404873   0.230169  -0.016501
     4  O    0.020638  -0.042678   0.230169   8.385761   0.263920
     5  H   -0.000741   0.002416  -0.016501   0.263920   0.400057
 Mulliken atomic charges:
              1
     1  O    0.060626
     2  O    0.048602
     3  H    0.397733
     4  O   -0.857809
     5  H    0.350848
 Sum of Mulliken atomic charges =   0.00000
 Mulliken charges with hydrogens summed into heavy atoms:
              1
     1  O    0.060626
     2  O    0.048602
     4  O   -0.109228
 Sum of Mulliken charges with hydrogens summed into heavy atoms =   0.00000
 APT atomic charges:
              1
     1  O    0.164344
     2  O   -0.049920
     3  H    0.330916
     4  O   -1.001067
     5  H    0.555726
 Sum of APT charges=   0.00000
 APT Atomic charges with hydrogens summed into heavy atoms:
              1
     1  O    0.164344
     2  O   -0.049920
     3  H    0.000000
     4  O   -0.114424
     5  H    0.000000
 Sum of APT charges=   0.00000
 Electronic spatial extent (au):  <R**2>=            269.4708
 Charge=              0.0000 electrons
 Dipole moment (field-independent basis, Debye):
    X=              0.1158    Y=              4.2081    Z=              0.0000  Tot=              4.2097
 Quadrupole moment (field-independent basis, Debye-Ang):
   XX=            -14.8002   YY=            -25.2835   ZZ=            -17.6233
   XY=             -0.0049   XZ=              0.0000   YZ=              0.0000
 Traceless Quadrupole moment (field-independent basis, Debye-Ang):
   XX=              4.4355   YY=             -6.0478   ZZ=              1.6123
   XY=             -0.0049   XZ=              0.0000   YZ=              0.0000
 Octapole moment (field-independent basis, Debye-Ang**2):
  XXX=             -4.9683  YYY=             26.2531  ZZZ=              0.0000  XYY=              0.0705
  XXY=             -3.4476  XXZ=              0.0000  XZZ=              1.5190  YZZ=              5.2497
  YYZ=              0.0000  XYZ=              0.0000
 Hexadecapole moment (field-independent basis, Debye-Ang**3):
 XXXX=            -44.1092 YYYY=           -280.0536 ZZZZ=            -15.1898 XXXY=            -22.2515
 XXXZ=              0.0000 YYYX=            -36.2660 YYYZ=              0.0000 ZZZX=              0.0000
 ZZZY=              0.0000 XXYY=            -40.8032 XXZZ=            -11.6246 YYZZ=            -44.3484
 XXYZ=              0.0000 YYXZ=              0.0000 ZZXY=            -11.7044
 N-N= 6.379641477545D+01 E-N=-6.611666143508D+02  KE= 2.242244532914D+02
 Symmetry A'   KE= 2.154390674772D+02
 Symmetry A"   KE= 8.785385814270D+00
  Exact polarizability:   0.000   0.000   0.000   0.000   0.000   0.000
 Approx polarizability:  24.870   1.417  44.172   0.000   0.000  13.501
 Calling FoFJK, ICntrl=    100147 FMM=F ISym2X=1 I1Cent= 0 IOpClX= 0 NMat=1 NMatS=1 NMatT=0.
 ***** Axes restored to original set *****
 -------------------------------------------------------------------
 Center     Atomic                   Forces (Hartrees/Bohr)
 Number     Number              X              Y              Z
 -------------------------------------------------------------------
      1        8           0.091785753    0.001597518    0.000000000
      2        8          -0.089432448   -0.005219383    0.000000000
      3        1           0.028832446    0.105573520    0.000000000
      4        8          -0.023255922   -0.099567953    0.000000000
      5        1          -0.007929829   -0.002383702    0.000000000
 -------------------------------------------------------------------
 Cartesian Forces:  Max     0.105573520 RMS     0.050959355

 GradGradGradGradGradGradGradGradGradGradGradGradGradGradGradGradGradGrad
 Berny optimization.
 Internal  Forces:  Max     0.106449728 RMS     0.047129031
 Search for a saddle point.
 Step number   1 out of a maximum of  100
 All quantities printed in internal units (Hartrees-Bohrs-Radians)
 Second derivative matrix not updated -- analytic derivatives used.
 The second derivative matrix:
                          R1        R2        R3        R4        A1
           R1           0.57142
           R2           0.01657   0.01323
           R3           0.00168   0.03708  -0.00675
           R4          -0.00174  -0.00064  -0.00417   0.56813
           A1           0.01433  -0.00326   0.00169   0.00040   0.05976
           A2           0.00075   0.01808   0.00869   0.01247   0.00272
           A3          -0.00426   0.00178   0.00308   0.00041  -0.01754
           A4           0.00000   0.00000   0.00000   0.00000   0.00000
           D1           0.00000   0.00000   0.00000   0.00000   0.00000
                          A2        A3        A4        D1
           A2           0.09370
           A3          -0.00580   0.01234
           A4           0.00000   0.00000   0.00162
           D1           0.00000   0.00000  -0.00336   0.00240
 LST/QST climbing along tangent vector
     Eigenvalues ---   -0.02963  -0.00138   0.00539   0.00567   0.03371
     Eigenvalues ---    0.06543   0.09966   0.56698   0.57003
 Eigenvectors required to have negative eigenvalues:
                          R2        R3        R1        A1        A3
   1                    0.72088  -0.68499  -0.09878   0.02615  -0.02615
                          D1        R4        A2        A4
   1                    0.00000   0.00000   0.00000   0.00000
 QST in optimization variable space.
                        Tangent   TS vect  // Eig F  Eigenval
   1         R1        -0.09878  -0.09878   0.08352  -0.02963
   2         R2         0.72088   0.72088   0.00000  -0.00138
   3         R3        -0.68499  -0.68499   0.00000   0.00539
   4         R4         0.00000   0.00000   0.00572   0.00567
   5         A1         0.02615   0.02615  -0.03274   0.03371
   6         A2         0.00000   0.00000   0.00198   0.06543
   7         A3        -0.02615  -0.02615  -0.01684   0.09966
   8         A4         0.00000   0.00000  -0.02848   0.56698
   9         D1         0.00000   0.00000  -0.03241   0.57003
 RFO step:  Lambda0=7.000538055D-02 Lambda=-2.48408089D-02.
 Linear search not attempted -- option 19 set.
 Maximum step size (   0.300) exceeded in Quadratic search.
    -- Step size scaled by   0.234
 Iteration  1 RMS(Cart)=  0.07323603 RMS(Int)=  0.01361207
 Iteration  2 RMS(Cart)=  0.01344434 RMS(Int)=  0.00002921
 Iteration  3 RMS(Cart)=  0.00003027 RMS(Int)=  0.00000000
 Iteration  4 RMS(Cart)=  0.00000000 RMS(Int)=  0.00000000
 ClnCor:  largest displacement from symmetrization is 8.75D-02 for atom     4.
 Variable       Old X    -DE/DX   Delta X   Delta X   Delta X     New X
                                 (Linear)    (Quad)   (Total)
    R1        2.37454  -0.09177   0.00000   0.00641   0.00588   2.38041
    R2        2.68917   0.00248   0.00000  -0.23783  -0.23823   2.45094
    R3        2.64562  -0.10645   0.00000   0.03402   0.02995   2.67556
    R4        1.81414   0.00460   0.00000  -0.00019  -0.00517   1.80897
    A1        1.94237  -0.00653   0.00000  -0.01165  -0.01192   1.93045
    A2        1.91063  -0.01253   0.00000   0.01124   0.01717   1.92781
    A3        3.10985   0.00308   0.00000   0.03243   0.03759   3.14744
    A4        3.14159   0.00000   0.00000   0.13128   0.00000   3.14159
    D1        0.00000   0.00000   0.00000   0.11701   0.00000   0.00000
         Item               Value     Threshold  Converged?
 Maximum Force            0.106450     0.000450     NO 
 RMS     Force            0.047129     0.000300     NO 
 Maximum Displacement     0.111248     0.001800     NO 
 RMS     Displacement     0.073392     0.001200     NO 
 Predicted change in Energy= 4.400649D-03
 GradGradGradGradGradGradGradGradGradGradGradGradGradGradGradGradGradGrad

                          Input orientation:                          
 ---------------------------------------------------------------------
 Center     Atomic      Atomic             Coordinates (Angstroms)
 Number     Number       Type             X           Y           Z
 ---------------------------------------------------------------------
      1          8           0       -0.646838   -0.035089    0.000000
      2          8           0        0.612821   -0.033862    0.000000
      3          1           0        1.068114    1.180579    0.000000
      4          8           0        1.572884    2.503391    0.000000
      5          1           0        0.854182    3.135707    0.000000
 ---------------------------------------------------------------------
                    Distance matrix (angstroms):
                    1          2          3          4          5
     1  O    0.000000
     2  O    1.259659   0.000000
     3  H    2.102120   1.296981   0.000000
     4  O    3.372098   2.712817   1.415848   0.000000
     5  H    3.508134   3.178746   1.966798   0.957265   0.000000
 Stoichiometry    H2O3
 Framework group  CS[SG(H2O3)]
 Deg. of freedom     7
 Full point group                 CS      NOp   2
 Largest Abelian subgroup         CS      NOp   2
 Largest concise Abelian subgroup C1      NOp   1
                         Standard orientation:                         
 ---------------------------------------------------------------------
 Center     Atomic      Atomic             Coordinates (Angstroms)
 Number     Number       Type             X           Y           Z
 ---------------------------------------------------------------------
      1          8           0       -0.303934   -1.495562    0.000000
      2          8           0       -0.875072   -0.372822    0.000000
      3          1           0        0.000000    0.584470    0.000000
      4          8           0        0.949140    1.635069    0.000000
      5          1           0        1.838933    1.282049    0.000000
 ---------------------------------------------------------------------
 Rotational constants (GHZ):     51.0003938      4.8472806      4.4265624
 Standard basis: 6-31+G(d,p) (6D, 7F)
 There are    50 symmetry adapted basis functions of A'  symmetry.
 There are    17 symmetry adapted basis functions of A"  symmetry.
 Integral buffers will be    262144 words long.
 Raffenetti 2 integral format.
 Two-electron integral symmetry is turned on.
    67 basis functions,   110 primitive gaussians,    67 cartesian basis functions
    13 alpha electrons       13 beta electrons
       nuclear repulsion energy        64.9116704606 Hartrees.
 NAtoms=    5 NActive=    5 NUniq=    5 SFac= 7.50D-01 NAtFMM=   80 NAOKFM=F Big=F
 One-electron integrals computed using PRISM.
 NBasis=    67 RedAO= T  NBF=    50    17
 NBsUse=    67 1.00D-06 NBFU=    50    17
 Initial guess read from the read-write file.
 B after Tr=     0.000000    0.000000    0.000000
         Rot=    1.000000    0.000000    0.000000    0.000000 Ang=   0.00 deg.
 Initial guess orbital symmetries:
       Occupied  (A') (A') (A') (A') (A') (A') (A') (A') (A") (A')
                 (A') (A') (A")
       Virtual   (A") (A') (A') (A') (A") (A') (A') (A') (A") (A')
                 (A') (A") (A') (A') (A') (A') (A') (A') (A") (A')
                 (A') (A') (A") (A') (A') (A") (A') (A') (A') (A")
                 (A') (A") (A') (A') (A") (A") (A') (A') (A") (A')
                 (A') (A") (A') (A") (A') (A') (A") (A') (A') (A')
                 (A') (A') (A') (A')
 Harris functional with IExCor= 1009 diagonalized for initial guess.
 ExpMin= 8.45D-02 ExpMax= 5.48D+03 ExpMxC= 8.25D+02 IAcc=2 IRadAn=         0 AccDes= 0.00D+00
 HarFok:  IExCor= 1009 AccDes= 0.00D+00 IRadAn=         0 IDoV= 1
 ScaDFX=  1.000000  1.000000  1.000000  1.000000
 FoFCou: FMM=F IPFlag=           0 FMFlag=      100000 FMFlg1=           0
         NFxFlg=           0 DoJE=T BraDBF=F KetDBF=T FulRan=T
         Omega=  0.000000  0.000000  1.000000  0.000000  0.000000 ICntrl=     500 IOpCl=  0
         NMat0=    1 NMatS0=    1 NMatT0=    0 NMatD0=    1 NMtDS0=    0 NMtDT0=    0
         I1Cent=           4 NGrid=           0.
 Petite list used in FoFCou.
 Requested convergence on RMS density matrix=1.00D-08 within 128 cycles.
 Requested convergence on MAX density matrix=1.00D-06.
 Requested convergence on             energy=1.00D-06.
 No special actions if energy rises.
 Keep R1 ints in memory in canonical form, NReq=3551239.
 Integral accuracy reduced to 1.0D-05 until final iterations.
 Initial convergence to 1.0D-05 achieved.  Increase integral accuracy.
 SCF Done:  E(RM062X) =  -226.512019901     A.U. after   21 cycles
             Convg  =    0.1124D-08             -V/T =  2.0100
 Calling FoFJK, ICntrl=      2127 FMM=F ISym2X=1 I1Cent= 0 IOpClX= 0 NMat=1 NMatS=1 NMatT=0.
 ***** Axes restored to original set *****
 -------------------------------------------------------------------
 Center     Atomic                   Forces (Hartrees/Bohr)
 Number     Number              X              Y              Z
 -------------------------------------------------------------------
      1        8           0.085477472    0.002462573    0.000000000
      2        8          -0.082563245   -0.005303629    0.000000000
      3        1           0.026706784    0.092295323    0.000000000
      4        8          -0.020838410   -0.090801205    0.000000000
      5        1          -0.008782600    0.001346938    0.000000000
 -------------------------------------------------------------------
 Cartesian Forces:  Max     0.092295323 RMS     0.046293992

 GradGradGradGradGradGradGradGradGradGradGradGradGradGradGradGradGradGrad
 Berny optimization.
 Internal  Forces:  Max     0.094133549 RMS     0.042599722
 Search for a saddle point.
 Step number   2 out of a maximum of  100
 All quantities printed in internal units (Hartrees-Bohrs-Radians)
 Update second derivatives using D2CorX and points    1    2
 The second derivative matrix:
                          R1        R2        R3        R4        A1
           R1           0.56316
           R2           0.03781   0.00577
           R3          -0.00562   0.05062  -0.01262
           R4          -0.00154  -0.00009  -0.00411   0.56815
           A1           0.01477  -0.00193   0.00181   0.00045   0.05987
           A2          -0.00223   0.02258   0.00640   0.01247   0.00272
           A3          -0.00732   0.00215   0.00121   0.00031  -0.01777
           A4           0.00000   0.00000   0.00000   0.00000   0.00000
           D1           0.00000   0.00000   0.00000   0.00000   0.00000
                          A2        A3        A4        D1
           A2           0.09284
           A3          -0.00640   0.01240
           A4           0.00000   0.00000   0.00162
           D1           0.00000   0.00000  -0.00336   0.00240
 LST/QST climbing along tangent vector
     Eigenvalues ---   -0.05404  -0.00138   0.00539   0.00580   0.03851
     Eigenvalues ---    0.06543   0.10081   0.56412   0.56895
 Eigenvectors required to have negative eigenvalues:
                          R3        R2        R1        A1        A3
   1                    0.71188  -0.69416   0.10224  -0.02431   0.01747
                          A2        R4        D1        A4
   1                   -0.00457   0.00138   0.00000   0.00000
 QST in optimization variable space.
                        Tangent   TS vect  // Eig F  Eigenval
   1         R1        -0.10224   0.10224  -0.07663  -0.05404
   2         R2         0.69416  -0.69416   0.00000  -0.00138
   3         R3        -0.71188   0.71188   0.00000   0.00539
   4         R4        -0.00138   0.00138   0.00342   0.00580
   5         A1         0.02431  -0.02431  -0.02668   0.03851
   6         A2         0.00457  -0.00457   0.00165   0.06543
   7         A3        -0.01747   0.01747  -0.01516   0.10081
   8         A4         0.00000   0.00000  -0.03744   0.56412
   9         D1         0.00000   0.00000   0.01603   0.56895
 RFO step:  Lambda0=5.423241680D-02 Lambda=-1.79251323D-02.
 Linear search not attempted -- option 19 set.
 Maximum step size (   0.300) exceeded in Quadratic search.
    -- Step size scaled by   0.260
 Iteration  1 RMS(Cart)=  0.07394720 RMS(Int)=  0.00865231
 Iteration  2 RMS(Cart)=  0.00836668 RMS(Int)=  0.00003048
 Iteration  3 RMS(Cart)=  0.00003192 RMS(Int)=  0.00000000
 Iteration  4 RMS(Cart)=  0.00000000 RMS(Int)=  0.00000000
 ClnCor:  largest displacement from symmetrization is 9.45D-02 for atom     4.
 Variable       Old X    -DE/DX   Delta X   Delta X   Delta X     New X
                                 (Linear)    (Quad)   (Total)
    R1        2.38041  -0.08542   0.00000   0.00723   0.00659   2.38700
    R2        2.45094   0.00162   0.00000  -0.22142  -0.22197   2.22897
    R3        2.67556  -0.09413   0.00000   0.04076   0.03601   2.71158
    R4        1.80897   0.00743   0.00000   0.00091  -0.00490   1.80407
    A1        1.93045  -0.00579   0.00000  -0.00988  -0.01024   1.92021
    A2        1.92781  -0.00859   0.00000   0.01430   0.02135   1.94916
    A3        3.14744   0.00303   0.00000   0.02953   0.03577   3.18321
    A4        3.14159   0.00000   0.00000   0.14568   0.00000   3.14159
    D1        0.00000   0.00000   0.00000   0.12985   0.00000   0.00000
         Item               Value     Threshold  Converged?
 Maximum Force            0.094134     0.000450     NO 
 RMS     Force            0.042600     0.000300     NO 
 Maximum Displacement     0.103098     0.001800     NO 
 RMS     Displacement     0.066124     0.001200     NO 
 Predicted change in Energy= 3.963609D-03
 GradGradGradGradGradGradGradGradGradGradGradGradGradGradGradGradGradGrad

                          Input orientation:                          
 ---------------------------------------------------------------------
 Center     Atomic      Atomic             Coordinates (Angstroms)
 Number     Number       Type             X           Y           Z
 ---------------------------------------------------------------------
      1          8           0       -0.618994   -0.001160    0.000000
      2          8           0        0.643963    0.020695    0.000000
      3          1           0        1.028536    1.135759    0.000000
      4          8           0        1.552409    2.471614    0.000000
      5          1           0        0.855249    3.123817    0.000000
 ---------------------------------------------------------------------
                    Distance matrix (angstroms):
                    1          2          3          4          5
     1  O    0.000000
     2  O    1.263146   0.000000
     3  H    2.001734   1.179519   0.000000
     4  O    3.290837   2.613863   1.434905   0.000000
     5  H    3.455268   3.110307   1.995596   0.954674   0.000000
 Stoichiometry    H2O3
 Framework group  CS[SG(H2O3)]
 Deg. of freedom     7
 Full point group                 CS      NOp   2
 Largest Abelian subgroup         CS      NOp   2
 Largest concise Abelian subgroup C1      NOp   1
                         Standard orientation:                         
 ---------------------------------------------------------------------
 Center     Atomic      Atomic             Coordinates (Angstroms)
 Number     Number       Type             X           Y           Z
 ---------------------------------------------------------------------
      1          8           0       -0.383074   -1.451133    0.000000
      2          8           0       -0.868178   -0.284851    0.000000
      3          1           0        0.000000    0.513605    0.000000
      4          8           0        1.014824    1.528042    0.000000
      5          1           0        1.891426    1.149928    0.000000
 ---------------------------------------------------------------------
 Rotational constants (GHZ):     51.9062479      5.1284044      4.6672719
 Standard basis: 6-31+G(d,p) (6D, 7F)
 There are    50 symmetry adapted basis functions of A'  symmetry.
 There are    17 symmetry adapted basis functions of A"  symmetry.
 Integral buffers will be    262144 words long.
 Raffenetti 2 integral format.
 Two-electron integral symmetry is turned on.
    67 basis functions,   110 primitive gaussians,    67 cartesian basis functions
    13 alpha electrons       13 beta electrons
       nuclear repulsion energy        66.0002888297 Hartrees.
 NAtoms=    5 NActive=    5 NUniq=    5 SFac= 7.50D-01 NAtFMM=   80 NAOKFM=F Big=F
 One-electron integrals computed using PRISM.
 NBasis=    67 RedAO= T  NBF=    50    17
 NBsUse=    67 1.00D-06 NBFU=    50    17
 Initial guess read from the read-write file.
 B after Tr=     0.000000    0.000000    0.000000
         Rot=    1.000000    0.000000    0.000000    0.000000 Ang=   0.00 deg.
 Initial guess orbital symmetries:
       Occupied  (A') (A') (A') (A') (A') (A') (A') (A') (A") (A')
                 (A') (A') (A")
       Virtual   (A") (A') (A') (A') (A") (A') (A') (A') (A") (A')
                 (A') (A") (A') (A') (A') (A') (A') (A') (A") (A')
                 (A') (A') (A") (A') (A') (A") (A') (A') (A') (A")
                 (A') (A") (A') (A') (A") (A") (A') (A') (A") (A')
                 (A') (A") (A') (A") (A') (A') (A") (A') (A') (A')
                 (A') (A') (A') (A')
 Harris functional with IExCor= 1009 diagonalized for initial guess.
 ExpMin= 8.45D-02 ExpMax= 5.48D+03 ExpMxC= 8.25D+02 IAcc=2 IRadAn=         0 AccDes= 0.00D+00
 HarFok:  IExCor= 1009 AccDes= 0.00D+00 IRadAn=         0 IDoV= 1
 ScaDFX=  1.000000  1.000000  1.000000  1.000000
 FoFCou: FMM=F IPFlag=           0 FMFlag=      100000 FMFlg1=           0
         NFxFlg=           0 DoJE=T BraDBF=F KetDBF=T FulRan=T
         Omega=  0.000000  0.000000  1.000000  0.000000  0.000000 ICntrl=     500 IOpCl=  0
         NMat0=    1 NMatS0=    1 NMatT0=    0 NMatD0=    1 NMtDS0=    0 NMtDT0=    0
         I1Cent=           4 NGrid=           0.
 Petite list used in FoFCou.
 Requested convergence on RMS density matrix=1.00D-08 within 128 cycles.
 Requested convergence on MAX density matrix=1.00D-06.
 Requested convergence on             energy=1.00D-06.
 No special actions if energy rises.
 Keep R1 ints in memory in canonical form, NReq=3551093.
 Integral accuracy reduced to 1.0D-05 until final iterations.
 Initial convergence to 1.0D-05 achieved.  Increase integral accuracy.
 SCF Done:  E(RM062X) =  -226.508175541     A.U. after   19 cycles
             Convg  =    0.3520D-08             -V/T =  2.0096
 Calling FoFJK, ICntrl=      2127 FMM=F ISym2X=1 I1Cent= 0 IOpClX= 0 NMat=1 NMatS=1 NMatT=0.
 ***** Axes restored to original set *****
 -------------------------------------------------------------------
 Center     Atomic                   Forces (Hartrees/Bohr)
 Number     Number              X              Y              Z
 -------------------------------------------------------------------
      1        8           0.074107803    0.003411697    0.000000000
      2        8          -0.071774834   -0.006594746    0.000000000
      3        1           0.023041986    0.074222390    0.000000000
      4        8          -0.015896698   -0.076905765    0.000000000
      5        1          -0.009478257    0.005866424    0.000000000
 -------------------------------------------------------------------
 Cartesian Forces:  Max     0.076905765 RMS     0.039183393

 GradGradGradGradGradGradGradGradGradGradGradGradGradGradGradGradGradGrad
 Berny optimization.
 Internal  Forces:  Max     0.075400673 RMS     0.035523191
 Search for a saddle point.
 Step number   3 out of a maximum of  100
 All quantities printed in internal units (Hartrees-Bohrs-Radians)
 Update second derivatives using D2CorX and points    1    2    3
 The second derivative matrix:
                          R1        R2        R3        R4        A1
           R1           0.56305
           R2           0.06304   0.02013
           R3          -0.00872   0.08057  -0.02002
           R4          -0.00091   0.00376  -0.00377   0.56833
           A1           0.01596  -0.00107   0.00320   0.00063   0.05992
           A2          -0.00434   0.02843   0.00308   0.01233   0.00298
           A3          -0.01141  -0.00219  -0.00341  -0.00036  -0.01800
           A4           0.00000   0.00000   0.00000   0.00000   0.00000
           D1           0.00000   0.00000   0.00000   0.00000   0.00000
                          A2        A3        A4        D1
           A2           0.09177
           A3          -0.00718   0.01344
           A4           0.00000   0.00000   0.00162
           D1           0.00000   0.00000  -0.00336   0.00240
 LST/QST climbing along tangent vector
     Eigenvalues ---   -0.08453  -0.00138   0.00539   0.00672   0.05887
     Eigenvalues ---    0.06610   0.11083   0.56860   0.57002
 Eigenvectors required to have negative eigenvalues:
                          R3        R2        R1        A2        A1
   1                    0.78140  -0.61333   0.11110  -0.02060  -0.01932
                          A3        R4        D1        A4
   1                   -0.00806   0.00538   0.00000   0.00000
 QST in optimization variable space.
                        Tangent   TS vect  // Eig F  Eigenval
   1         R1        -0.11110   0.11110  -0.06832  -0.08453
   2         R2         0.61333  -0.61333   0.00000  -0.00138
   3         R3        -0.78140   0.78140   0.00000   0.00539
   4         R4        -0.00538   0.00538  -0.00103   0.00672
   5         A1         0.01932  -0.01932   0.01281   0.05887
   6         A2         0.02060  -0.02060   0.00441   0.06610
   7         A3         0.00806  -0.00806  -0.01413   0.11083
   8         A4         0.00000   0.00000  -0.00406   0.56860
   9         D1         0.00000   0.00000  -0.03566   0.57002
 RFO step:  Lambda0=3.806954609D-02 Lambda=-6.77664383D-03.
 Linear search not attempted -- option 19 set.
 Maximum step size (   0.300) exceeded in Quadratic search.
    -- Step size scaled by   0.310
 Iteration  1 RMS(Cart)=  0.07759818 RMS(Int)=  0.00769515
 Iteration  2 RMS(Cart)=  0.00882652 RMS(Int)=  0.00007539
 Iteration  3 RMS(Cart)=  0.00006920 RMS(Int)=  0.00000000
 Iteration  4 RMS(Cart)=  0.00000000 RMS(Int)=  0.00000000
 ClnCor:  largest displacement from symmetrization is 1.15D-01 for atom     4.
          Exceeds limit of 1.00D-01 so symmetrization was rejected.
 Variable       Old X    -DE/DX   Delta X   Delta X   Delta X     New X
                                 (Linear)    (Quad)   (Total)
    R1        2.38700  -0.07417   0.00000   0.00689   0.00689   2.39389
    R2        2.22897   0.00225   0.00000  -0.16466  -0.16466   2.06430
    R3        2.71158  -0.07540   0.00000   0.08998   0.08998   2.80155
    R4        1.80407   0.01094   0.00000   0.00387   0.00387   1.80794
    A1        1.92021  -0.00505   0.00000  -0.01926  -0.01926   1.90095
    A2        1.94916  -0.00397   0.00000   0.00474   0.00474   1.95389
    A3        3.18321   0.00223   0.00000  -0.02029  -0.02029   3.16292
    A4        3.14159   0.00000   0.00000   0.17335   0.17335   3.31494
    D1        0.00000   0.00000   0.00000   0.15450   0.15450   0.15450
         Item               Value     Threshold  Converged?
 Maximum Force            0.075401     0.000450     NO 
 RMS     Force            0.035523     0.000300     NO 
 Maximum Displacement     0.114501     0.001800     NO 
 RMS     Displacement     0.076581     0.001200     NO 
 Predicted change in Energy= 6.465412D-03
 GradGradGradGradGradGradGradGradGradGradGradGradGradGradGradGradGradGrad

                          Input orientation:                          
 ---------------------------------------------------------------------
 Center     Atomic      Atomic             Coordinates (Angstroms)
 Number     Number       Type             X           Y           Z
 ---------------------------------------------------------------------
      1          8           0       -0.601242    0.045504   -0.024803
      2          8           0        0.665107    0.046396    0.008702
      3          1           0        1.017682    1.079682    0.044889
      4          8           0        1.537342    2.464128   -0.060591
      5          1           0        0.842273    3.115015    0.031803
 ---------------------------------------------------------------------
                    Distance matrix (angstroms):
                    1          2          3          4          5
     1  O    0.000000
     2  O    1.266793   0.000000
     3  H    1.922315   1.092382   0.000000
     4  O    3.228709   2.571191   1.482519   0.000000
     5  H    3.392467   3.073816   2.042919   0.956719   0.000000
 Stoichiometry    H2O3
 Framework group  C1[X(H2O3)]
 Deg. of freedom     9
 Full point group                 C1      NOp   1
 Omega: Change in point group or standard orientation.

 Old FWG=CS   [SG(H2O3)]
 New FWG=C01  [X(H2O3)]
 Largest Abelian subgroup         C1      NOp   1
 Largest concise Abelian subgroup C1      NOp   1
                         Standard orientation:                         
 ---------------------------------------------------------------------
 Center     Atomic      Atomic             Coordinates (Angstroms)
 Number     Number       Type             X           Y           Z
 ---------------------------------------------------------------------
      1          8           0       -1.394488    0.477261   -0.009025
      2          8           0       -0.697557   -0.580457    0.007810
      3          1           0        0.358806   -0.307686    0.062498
      4          8           0        1.801936    0.021912   -0.018765
      5          1           0        1.962065    0.957963    0.097339
 ---------------------------------------------------------------------
 Rotational constants (GHZ):     50.3618938      5.3319534      4.8233071
 Standard basis: 6-31+G(d,p) (6D, 7F)
 There are    67 symmetry adapted basis functions of A   symmetry.
 Integral buffers will be    262144 words long.
 Raffenetti 2 integral format.
 Two-electron integral symmetry is turned on.
    67 basis functions,   110 primitive gaussians,    67 cartesian basis functions
    13 alpha electrons       13 beta electrons
       nuclear repulsion energy        66.6383116918 Hartrees.
 NAtoms=    5 NActive=    5 NUniq=    5 SFac= 7.50D-01 NAtFMM=   80 NAOKFM=F Big=F
 One-electron integrals computed using PRISM.
 NBasis=    67 RedAO= T  NBF=    67
 NBsUse=    67 1.00D-06 NBFU=    67
 Initial guess read from the read-write file.
 B after Tr=     0.000000    0.000000    0.000000
         Rot=    1.000000    0.000000    0.000000    0.000000 Ang=   0.00 deg.
 Initial guess orbital symmetries:
       Occupied  (A) (A) (A) (A) (A) (A) (A) (A) (A) (A) (A) (A)
                 (A)
       Virtual   (A) (A) (A) (A) (A) (A) (A) (A) (A) (A) (A) (A)
                 (A) (A) (A) (A) (A) (A) (A) (A) (A) (A) (A) (A)
                 (A) (A) (A) (A) (A) (A) (A) (A) (A) (A) (A) (A)
                 (A) (A) (A) (A) (A) (A) (A) (A) (A) (A) (A) (A)
                 (A) (A) (A) (A) (A) (A)
 Harris functional with IExCor= 1009 diagonalized for initial guess.
 ExpMin= 8.45D-02 ExpMax= 5.48D+03 ExpMxC= 8.25D+02 IAcc=2 IRadAn=         0 AccDes= 0.00D+00
 HarFok:  IExCor= 1009 AccDes= 0.00D+00 IRadAn=         0 IDoV= 1
 ScaDFX=  1.000000  1.000000  1.000000  1.000000
 FoFCou: FMM=F IPFlag=           0 FMFlag=      100000 FMFlg1=           0
         NFxFlg=           0 DoJE=T BraDBF=F KetDBF=T FulRan=T
         Omega=  0.000000  0.000000  1.000000  0.000000  0.000000 ICntrl=     500 IOpCl=  0
         NMat0=    1 NMatS0=    1 NMatT0=    0 NMatD0=    1 NMtDS0=    0 NMtDT0=    0
         I1Cent=           4 NGrid=           0.
 Petite list used in FoFCou.
 Requested convergence on RMS density matrix=1.00D-08 within 128 cycles.
 Requested convergence on MAX density matrix=1.00D-06.
 Requested convergence on             energy=1.00D-06.
 No special actions if energy rises.
 Keep R1 ints in memory in canonical form, NReq=3551083.
 Integral accuracy reduced to 1.0D-05 until final iterations.
 Initial convergence to 1.0D-05 achieved.  Increase integral accuracy.
 SCF Done:  E(RM062X) =  -226.501060360     A.U. after   38 cycles
             Convg  =    0.5082D-08             -V/T =  2.0093
 Calling FoFJK, ICntrl=      2127 FMM=F ISym2X=0 I1Cent= 0 IOpClX= 0 NMat=1 NMatS=1 NMatT=0.
 ***** Axes restored to original set *****
 -------------------------------------------------------------------
 Center     Atomic                   Forces (Hartrees/Bohr)
 Number     Number              X              Y              Z
 -------------------------------------------------------------------
      1        8           0.063120150    0.000480138    0.002934559
      2        8          -0.065648562   -0.012068391   -0.006748985
      3        1           0.021812956    0.067670799    0.001492811
      4        8          -0.011028779   -0.062009070    0.002873937
      5        1          -0.008255765    0.005926524   -0.000552322
 -------------------------------------------------------------------
 Cartesian Forces:  Max     0.067670799 RMS     0.034283037

 GradGradGradGradGradGradGradGradGradGradGradGradGradGradGradGradGradGrad
 Berny optimization.
 Internal  Forces:  Max     0.063081271 RMS     0.029368837
 Search for a saddle point.
 Step number   4 out of a maximum of  100
 All quantities printed in internal units (Hartrees-Bohrs-Radians)
 Update second derivatives using D2CorX and points    2    3    4
 The second derivative matrix:
                          R1        R2        R3        R4        A1
           R1           0.56454
           R2           0.07609   0.08628
           R3          -0.01095   0.07787  -0.02269
           R4          -0.00079   0.00492  -0.00401   0.56834
           A1           0.01821   0.01329   0.00173   0.00083   0.06272
           A2          -0.00567   0.01992   0.00399   0.01222   0.00131
           A3          -0.01173  -0.00542  -0.00268  -0.00037  -0.01855
           A4          -0.00279   0.00248  -0.00558  -0.00034  -0.00114
           D1          -0.00541  -0.02077  -0.00153  -0.00054  -0.00514
                          A2        A3        A4        D1
           A2           0.09275
           A3          -0.00688   0.01342
           A4           0.00080   0.00112  -0.00919
           D1           0.00315   0.00165  -0.00902   0.00649
 LST/QST climbing along tangent vector
     Eigenvalues ---   -0.06254  -0.01651   0.00665   0.00866   0.06577
     Eigenvalues ---    0.08352   0.13221   0.56871   0.57616
 Eigenvectors required to have negative eigenvalues:
                          R3        R2        A4        D1        R1
   1                    0.83289  -0.50485  -0.13983  -0.12463   0.12263
                          A2        A3        R4        A1
   1                   -0.03489  -0.00621   0.00500  -0.00318
 QST in optimization variable space.
                        Tangent   TS vect  // Eig F  Eigenval
   1         R1        -0.12263   0.12263  -0.06312  -0.06254
   2         R2         0.50485  -0.50485  -0.00495  -0.01651
   3         R3        -0.83289   0.83289  -0.00092   0.00665
   4         R4        -0.00500   0.00500  -0.00474   0.00866
   5         A1         0.00318  -0.00318   0.00192   0.06577
   6         A2         0.03489  -0.03489  -0.00033   0.08352
   7         A3         0.00621  -0.00621  -0.00593   0.13221
   8         A4         0.13983  -0.13983   0.00557   0.56871
   9         D1         0.12463  -0.12463  -0.02876   0.57616
 RFO step:  Lambda0=3.916875546D-02 Lambda=-1.80879876D-02.
 Linear search not attempted -- option 19 set.
 Maximum step size (   0.300) exceeded in Quadratic search.
    -- Step size scaled by   0.302
 Iteration  1 RMS(Cart)=  0.07028725 RMS(Int)=  0.00884305
 Iteration  2 RMS(Cart)=  0.01073227 RMS(Int)=  0.00010605
 Iteration  3 RMS(Cart)=  0.00010106 RMS(Int)=  0.00000001
 Iteration  4 RMS(Cart)=  0.00000001 RMS(Int)=  0.00000000
 Variable       Old X    -DE/DX   Delta X   Delta X   Delta X     New X
                                 (Linear)    (Quad)   (Total)
    R1        2.39389  -0.06308   0.00000   0.00746   0.00746   2.40135
    R2        2.06430   0.01174   0.00000  -0.10458  -0.10458   1.95972
    R3        2.80155  -0.05928   0.00000   0.10168   0.10168   2.90323
    R4        1.80794   0.01001   0.00000   0.00306   0.00306   1.81100
    A1        1.90095  -0.00133   0.00000  -0.00822  -0.00822   1.89272
    A2        1.95389  -0.00224   0.00000  -0.00535  -0.00535   1.94854
    A3        3.16292   0.00116   0.00000  -0.00131  -0.00131   3.16162
    A4        3.31494   0.00392   0.00000  -0.20527  -0.20527   3.10967
    D1        0.15450  -0.00276   0.00000  -0.16256  -0.16256  -0.00805
         Item               Value     Threshold  Converged?
 Maximum Force            0.063081     0.000450     NO 
 RMS     Force            0.029369     0.000300     NO 
 Maximum Displacement     0.124237     0.001800     NO 
 RMS     Displacement     0.069441     0.001200     NO 
 Predicted change in Energy= 6.963522D-03
 GradGradGradGradGradGradGradGradGradGradGradGradGradGradGradGradGradGrad

                          Input orientation:                          
 ---------------------------------------------------------------------
 Center     Atomic      Atomic             Coordinates (Angstroms)
 Number     Number       Type             X           Y           Z
 ---------------------------------------------------------------------
      1          8           0       -0.596735    0.068025    0.001890
      2          8           0        0.673931    0.054787    0.004352
      3          1           0        1.012301    1.034997   -0.007785
      4          8           0        1.542755    2.476783    0.005152
      5          1           0        0.828911    3.116133   -0.003609
 ---------------------------------------------------------------------
                    Distance matrix (angstroms):
                    1          2          3          4          5
     1  O    0.000000
     2  O    1.270738   0.000000
     3  H    1.877265   1.037040   0.000000
     4  O    3.221730   2.573115   1.536326   0.000000
     5  H    3.365035   3.065277   2.089205   0.958341   0.000000
 Stoichiometry    H2O3
 Framework group  C1[X(H2O3)]
 Deg. of freedom     9
 Full point group                 C1      NOp   1
 Largest Abelian subgroup         C1      NOp   1
 Largest concise Abelian subgroup C1      NOp   1
                         Standard orientation:                         
 ---------------------------------------------------------------------
 Center     Atomic      Atomic             Coordinates (Angstroms)
 Number     Number       Type             X           Y           Z
 ---------------------------------------------------------------------
      1          8           0        1.385858    0.483462   -0.000497
      2          8           0        0.698041   -0.585033   -0.000208
      3          1           0       -0.306692   -0.328478    0.011736
      4          8           0       -1.802574    0.021467   -0.001414
      5          1           0       -1.943914    0.969305    0.005207
 ---------------------------------------------------------------------
 Rotational constants (GHZ):     49.4026734      5.3576991      4.8335253
 Standard basis: 6-31+G(d,p) (6D, 7F)
 There are    67 symmetry adapted basis functions of A   symmetry.
 Integral buffers will be    262144 words long.
 Raffenetti 2 integral format.
 Two-electron integral symmetry is turned on.
    67 basis functions,   110 primitive gaussians,    67 cartesian basis functions
    13 alpha electrons       13 beta electrons
       nuclear repulsion energy        66.7286165346 Hartrees.
 NAtoms=    5 NActive=    5 NUniq=    5 SFac= 7.50D-01 NAtFMM=   80 NAOKFM=F Big=F
 One-electron integrals computed using PRISM.
 NBasis=    67 RedAO= T  NBF=    67
 NBsUse=    67 1.00D-06 NBFU=    67
 Initial guess read from the read-write file.
 B after Tr=     0.000000    0.000000    0.000000
         Rot=    1.000000    0.000000    0.000000    0.000000 Ang=   0.00 deg.
 Initial guess orbital symmetries:
       Occupied  (A) (A) (A) (A) (A) (A) (A) (A) (A) (A) (A) (A)
                 (A)
       Virtual   (A) (A) (A) (A) (A) (A) (A) (A) (A) (A) (A) (A)
                 (A) (A) (A) (A) (A) (A) (A) (A) (A) (A) (A) (A)
                 (A) (A) (A) (A) (A) (A) (A) (A) (A) (A) (A) (A)
                 (A) (A) (A) (A) (A) (A) (A) (A) (A) (A) (A) (A)
                 (A) (A) (A) (A) (A) (A)
 Harris functional with IExCor= 1009 diagonalized for initial guess.
 ExpMin= 8.45D-02 ExpMax= 5.48D+03 ExpMxC= 8.25D+02 IAcc=2 IRadAn=         0 AccDes= 0.00D+00
 HarFok:  IExCor= 1009 AccDes= 0.00D+00 IRadAn=         0 IDoV= 1
 ScaDFX=  1.000000  1.000000  1.000000  1.000000
 FoFCou: FMM=F IPFlag=           0 FMFlag=      100000 FMFlg1=           0
         NFxFlg=           0 DoJE=T BraDBF=F KetDBF=T FulRan=T
         Omega=  0.000000  0.000000  1.000000  0.000000  0.000000 ICntrl=     500 IOpCl=  0
         NMat0=    1 NMatS0=    1 NMatT0=    0 NMatD0=    1 NMtDS0=    0 NMtDT0=    0
         I1Cent=           4 NGrid=           0.
 Petite list used in FoFCou.
 Requested convergence on RMS density matrix=1.00D-08 within 128 cycles.
 Requested convergence on MAX density matrix=1.00D-06.
 Requested convergence on             energy=1.00D-06.
 No special actions if energy rises.
 Keep R1 ints in memory in canonical form, NReq=3551083.
 Integral accuracy reduced to 1.0D-05 until final iterations.
 Initial convergence to 1.0D-05 achieved.  Increase integral accuracy.
 SCF Done:  E(RM062X) =  -226.493256188     A.U. after   33 cycles
             Convg  =    0.9651D-08             -V/T =  2.0090
 Calling FoFJK, ICntrl=      2127 FMM=F ISym2X=0 I1Cent= 0 IOpClX= 0 NMat=1 NMatS=1 NMatT=0.
 ***** Axes restored to original set *****
 -------------------------------------------------------------------
 Center     Atomic                   Forces (Hartrees/Bohr)
 Number     Number              X              Y              Z
 -------------------------------------------------------------------
      1        8           0.057847195    0.000620830   -0.000131704
      2        8          -0.063408175   -0.023674700    0.001248729
      3        1           0.022585575    0.069713421   -0.001144710
      4        8          -0.010973624   -0.053262105   -0.000185975
      5        1          -0.006050971    0.006602555    0.000213660
 -------------------------------------------------------------------
 Cartesian Forces:  Max     0.069713421 RMS     0.033003321

 GradGradGradGradGradGradGradGradGradGradGradGradGradGradGradGradGradGrad
 Berny optimization.
 Internal  Forces:  Max     0.057863671 RMS     0.026807386
 Search for a saddle point.
 Step number   5 out of a maximum of  100
 All quantities printed in internal units (Hartrees-Bohrs-Radians)
 Update second derivatives using D2CorX and points    2    3    4    5
 The second derivative matrix:
                          R1        R2        R3        R4        A1
           R1           0.56542
           R2           0.08347   0.15789
           R3          -0.01299   0.07090  -0.03012
           R4          -0.00085   0.00399  -0.00385   0.56834
           A1           0.01891   0.00666   0.00695   0.00083   0.06116
           A2          -0.00585   0.02360   0.00187   0.01223   0.00200
           A3          -0.01154  -0.00333  -0.00317  -0.00034  -0.01815
           A4          -0.00053   0.00513   0.00257  -0.00043  -0.00500
           D1          -0.00382   0.01219  -0.00961  -0.00078  -0.00529
                          A2        A3        A4        D1
           A2           0.09239
           A3          -0.00714   0.01323
           A4           0.00234   0.00185  -0.01964
           D1           0.00321   0.00158  -0.00678   0.01461
     Eigenvalues ---   -0.05933  -0.02170   0.00665   0.01716   0.06710
     Eigenvalues ---    0.08637   0.17540   0.56873   0.58291
 Eigenvectors required to have negative eigenvalues:
                          R3        R2        D1        R1        A2
   1                    0.91980  -0.33932   0.17494   0.06746   0.04134
                          A1        A3        R4        A4
   1                   -0.03355   0.02702   0.00737   0.00729
 QST in optimization variable space.
                        Tangent   TS vect  // Eig F  Eigenval
   1         R1        -0.14280   0.06746  -0.05725  -0.05933
   2         R2         0.39829  -0.33932   0.00064  -0.02170
   3         R3        -0.90380   0.91980   0.00112   0.00665
   4         R4        -0.00378   0.00737   0.00918   0.01716
   5         A1        -0.01353  -0.03355  -0.00519   0.06710
   6         A2         0.04573   0.04134  -0.00101   0.08637
   7         A3         0.01608   0.02702   0.01542   0.17540
   8         A4        -0.03850   0.00729   0.00941   0.56873
   9         D1        -0.00971   0.17494  -0.05244   0.58291
 RFO step:  Lambda0=3.481806944D-02 Lambda=-2.17286322D-02.
 Linear search not attempted -- option 19 set.
 Maximum step size (   0.300) exceeded in Quadratic search.
    -- Step size scaled by   0.299
 Iteration  1 RMS(Cart)=  0.07660277 RMS(Int)=  0.00734995
 Iteration  2 RMS(Cart)=  0.00959944 RMS(Int)=  0.00007856
 Iteration  3 RMS(Cart)=  0.00007706 RMS(Int)=  0.00000000
 Iteration  4 RMS(Cart)=  0.00000000 RMS(Int)=  0.00000000
 Variable       Old X    -DE/DX   Delta X   Delta X   Delta X     New X
                                 (Linear)    (Quad)   (Total)
    R1        2.40135  -0.05786   0.00000  -0.01672  -0.01672   2.38462
    R2        1.95972   0.02362   0.00000  -0.04866  -0.04866   1.91106
    R3        2.90323  -0.04967   0.00000   0.15110   0.15110   3.05434
    R4        1.81100   0.00894   0.00000   0.00617   0.00617   1.81717
    A1        1.89272  -0.00288   0.00000   0.00463   0.00463   1.89735
    A2        1.94854   0.00155   0.00000   0.00623   0.00623   1.95477
    A3        3.16162   0.00169   0.00000   0.01225   0.01225   3.17386
    A4        3.10967  -0.00097   0.00000   0.20763   0.20763   3.31730
    D1       -0.00805   0.00048   0.00000   0.14547   0.14547   0.13742
         Item               Value     Threshold  Converged?
 Maximum Force            0.057864     0.000450     NO 
 RMS     Force            0.026807     0.000300     NO 
 Maximum Displacement     0.117880     0.001800     NO 
 RMS     Displacement     0.080058     0.001200     NO 
 Predicted change in Energy= 6.523256D-03
 GradGradGradGradGradGradGradGradGradGradGradGradGradGradGradGradGradGrad

                          Input orientation:                          
 ---------------------------------------------------------------------
 Center     Atomic      Atomic             Coordinates (Angstroms)
 Number     Number       Type             X           Y           Z
 ---------------------------------------------------------------------
      1          8           0       -0.594814    0.033266   -0.022364
      2          8           0        0.666780    0.041503    0.003626
      3          1           0        0.984090    1.000717    0.047568
      4          8           0        1.552099    2.510274   -0.057228
      5          1           0        0.853007    3.164965    0.028398
 ---------------------------------------------------------------------
                    Distance matrix (angstroms):
                    1          2          3          4          5
     1  O    0.000000
     2  O    1.261889   0.000000
     3  H    1.853048   1.011290   0.000000
     4  O    3.278112   2.623417   1.616285   0.000000
     5  H    3.450551   3.129107   2.168299   0.961604   0.000000
 Stoichiometry    H2O3
 Framework group  C1[X(H2O3)]
 Deg. of freedom     9
 Full point group                 C1      NOp   1
 Largest Abelian subgroup         C1      NOp   1
 Largest concise Abelian subgroup C1      NOp   1
                         Standard orientation:                         
 ---------------------------------------------------------------------
 Center     Atomic      Atomic             Coordinates (Angstroms)
 Number     Number       Type             X           Y           Z
 ---------------------------------------------------------------------
      1          8           0       -1.406418    0.479903   -0.008244
      2          8           0       -0.716324   -0.576471    0.006183
      3          1           0        0.261311   -0.324525    0.065004
      4          8           0        1.838889    0.017387   -0.016976
      5          1           0        2.009519    0.957970    0.087292
 ---------------------------------------------------------------------
 Rotational constants (GHZ):     50.5101793      5.1555612      4.6795386
 Standard basis: 6-31+G(d,p) (6D, 7F)
 There are    67 symmetry adapted basis functions of A   symmetry.
 Integral buffers will be    262144 words long.
 Raffenetti 2 integral format.
 Two-electron integral symmetry is turned on.
    67 basis functions,   110 primitive gaussians,    67 cartesian basis functions
    13 alpha electrons       13 beta electrons
       nuclear repulsion energy        66.3958574279 Hartrees.
 NAtoms=    5 NActive=    5 NUniq=    5 SFac= 7.50D-01 NAtFMM=   80 NAOKFM=F Big=F
 One-electron integrals computed using PRISM.
 NBasis=    67 RedAO= T  NBF=    67
 NBsUse=    67 1.00D-06 NBFU=    67
 Initial guess read from the read-write file.
 B after Tr=     0.000000    0.000000    0.000000
         Rot=    1.000000    0.000000    0.000000    0.000000 Ang=   0.00 deg.
 Initial guess orbital symmetries:
       Occupied  (A) (A) (A) (A) (A) (A) (A) (A) (A) (A) (A) (A)
                 (A)
       Virtual   (A) (A) (A) (A) (A) (A) (A) (A) (A) (A) (A) (A)
                 (A) (A) (A) (A) (A) (A) (A) (A) (A) (A) (A) (A)
                 (A) (A) (A) (A) (A) (A) (A) (A) (A) (A) (A) (A)
                 (A) (A) (A) (A) (A) (A) (A) (A) (A) (A) (A) (A)
                 (A) (A) (A) (A) (A) (A)
 Harris functional with IExCor= 1009 diagonalized for initial guess.
 ExpMin= 8.45D-02 ExpMax= 5.48D+03 ExpMxC= 8.25D+02 IAcc=2 IRadAn=         0 AccDes= 0.00D+00
 HarFok:  IExCor= 1009 AccDes= 0.00D+00 IRadAn=         0 IDoV= 1
 ScaDFX=  1.000000  1.000000  1.000000  1.000000
 FoFCou: FMM=F IPFlag=           0 FMFlag=      100000 FMFlg1=           0
         NFxFlg=           0 DoJE=T BraDBF=F KetDBF=T FulRan=T
         Omega=  0.000000  0.000000  1.000000  0.000000  0.000000 ICntrl=     500 IOpCl=  0
         NMat0=    1 NMatS0=    1 NMatT0=    0 NMatD0=    1 NMtDS0=    0 NMtDT0=    0
         I1Cent=           4 NGrid=           0.
 Petite list used in FoFCou.
 Requested convergence on RMS density matrix=1.00D-08 within 128 cycles.
 Requested convergence on MAX density matrix=1.00D-06.
 Requested convergence on             energy=1.00D-06.
 No special actions if energy rises.
 Keep R1 ints in memory in canonical form, NReq=3551083.
 Integral accuracy reduced to 1.0D-05 until final iterations.
 Initial convergence to 1.0D-05 achieved.  Increase integral accuracy.
 SCF Done:  E(RM062X) =  -226.485837020     A.U. after   32 cycles
             Convg  =    0.5488D-08             -V/T =  2.0088
 Calling FoFJK, ICntrl=      2127 FMM=F ISym2X=0 I1Cent= 0 IOpClX= 0 NMat=1 NMatS=1 NMatT=0.
 ***** Axes restored to original set *****
 -------------------------------------------------------------------
 Center     Atomic                   Forces (Hartrees/Bohr)
 Number     Number              X              Y              Z
 -------------------------------------------------------------------
      1        8           0.041316667    0.001179148    0.001837287
      2        8          -0.048318939   -0.027297147   -0.005579156
      3        1           0.022920995    0.068606767    0.001775604
      4        8          -0.011938030   -0.046962490    0.002820270
      5        1          -0.003980693    0.004473722   -0.000854005
 -------------------------------------------------------------------
 Cartesian Forces:  Max     0.068606767 RMS     0.028810603

 GradGradGradGradGradGradGradGradGradGradGradGradGradGradGradGradGradGrad
 Berny optimization.
 Internal  Forces:  Max     0.045391556 RMS     0.022481315
 Search for a saddle point.
 Step number   6 out of a maximum of  100
 All quantities printed in internal units (Hartrees-Bohrs-Radians)
 Update second derivatives using D2CorX and points    3    4    5    6
 The second derivative matrix:
                          R1        R2        R3        R4        A1
           R1           0.56565
           R2           0.08528   0.18532
           R3          -0.01396   0.05061  -0.02167
           R4          -0.00092   0.00247  -0.00279   0.56842
           A1           0.01866   0.00410   0.00938   0.00096   0.06133
           A2          -0.00575   0.02445   0.00091   0.01219   0.00195
           A3          -0.01162  -0.00565  -0.00142  -0.00022  -0.01804
           A4          -0.00103  -0.00340   0.00575   0.00000  -0.00383
           D1          -0.00374  -0.00003   0.00014  -0.00002  -0.00481
                          A2        A3        A4        D1
           A2           0.09241
           A3          -0.00718   0.01336
           A4           0.00185   0.00261  -0.01971
           D1           0.00302   0.00279  -0.00444   0.02405
     Eigenvalues ---   -0.03885  -0.01810   0.00693   0.02388   0.06755
     Eigenvalues ---    0.08681   0.18721   0.56877   0.58495
 Eigenvectors required to have negative eigenvalues:
                          R3        A4        R2        A1        R1
   1                    0.90133  -0.34140  -0.23341  -0.10058   0.05656
                          A2        D1        R4        A3
   1                    0.04645  -0.03282   0.00440   0.00224
 QST in optimization variable space.
                        Tangent   TS vect  // Eig F  Eigenval
   1         R1        -0.20053   0.05656  -0.05008  -0.03885
   2         R2         0.32977  -0.23341  -0.01583  -0.01810
   3         R3        -0.84546   0.90133  -0.00288   0.00693
   4         R4         0.00488   0.00440  -0.00346   0.02388
   5         A1        -0.01507  -0.10058  -0.00561   0.06755
   6         A2         0.07103   0.04645  -0.00320   0.08681
   7         A3         0.04563   0.00224   0.02215   0.18721
   8         A4         0.28276  -0.34140   0.00564   0.56877
   9         D1         0.22113  -0.03282  -0.03472   0.58495
 RFO step:  Lambda0=3.429229362D-02 Lambda=-2.87296199D-02.
 Linear search not attempted -- option 19 set.
 Maximum step size (   0.300) exceeded in Quadratic search.
    -- Step size scaled by   0.291
 Iteration  1 RMS(Cart)=  0.05936686 RMS(Int)=  0.02675184
 Iteration  2 RMS(Cart)=  0.01707925 RMS(Int)=  0.00049295
 Iteration  3 RMS(Cart)=  0.00059814 RMS(Int)=  0.00000029
 Iteration  4 RMS(Cart)=  0.00000024 RMS(Int)=  0.00000000
 Variable       Old X    -DE/DX   Delta X   Delta X   Delta X     New X
                                 (Linear)    (Quad)   (Total)
    R1        2.38462  -0.04129   0.00000  -0.01512  -0.01512   2.36951
    R2        1.91106   0.02701   0.00000  -0.00303  -0.00303   1.90803
    R3        3.05434  -0.04539   0.00000   0.11186   0.11186   3.16619
    R4        1.81717   0.00589   0.00000   0.00331   0.00331   1.82048
    A1        1.89735  -0.00238   0.00000  -0.04425  -0.04425   1.85310
    A2        1.95477   0.00111   0.00000   0.01206   0.01206   1.96684
    A3        3.17386   0.00045   0.00000   0.00121   0.00121   3.17508
    A4        3.31730   0.00270   0.00000  -0.27048  -0.27048   3.04682
    D1        0.13742  -0.00221   0.00000  -0.04442  -0.04442   0.09299
         Item               Value     Threshold  Converged?
 Maximum Force            0.045392     0.000450     NO 
 RMS     Force            0.022481     0.000300     NO 
 Maximum Displacement     0.133695     0.001800     NO 
 RMS     Displacement     0.069685     0.001200     NO 
 Predicted change in Energy= 4.006340D-03
 GradGradGradGradGradGradGradGradGradGradGradGradGradGradGradGradGradGrad

                          Input orientation:                          
 ---------------------------------------------------------------------
 Center     Atomic      Atomic             Coordinates (Angstroms)
 Number     Number       Type             X           Y           Z
 ---------------------------------------------------------------------
      1          8           0       -0.588607    0.049535   -0.012858
      2          8           0        0.663627    0.007294    0.035773
      3          1           0        0.979839    0.964371   -0.023180
      4          8           0        1.556247    2.537564   -0.016565
      5          1           0        0.850058    3.191961    0.016831
 ---------------------------------------------------------------------
                    Distance matrix (angstroms):
                    1          2          3          4          5
     1  O    0.000000
     2  O    1.253890   0.000000
     3  H    1.815780   1.009684   0.000000
     4  O    3.284921   2.683613   1.675478   0.000000
     5  H    3.456224   3.190176   2.231726   0.963356   0.000000
 Stoichiometry    H2O3
 Framework group  C1[X(H2O3)]
 Deg. of freedom     9
 Full point group                 C1      NOp   1
 Largest Abelian subgroup         C1      NOp   1
 Largest concise Abelian subgroup C1      NOp   1
                         Standard orientation:                         
 ---------------------------------------------------------------------
 Center     Atomic      Atomic             Coordinates (Angstroms)
 Number     Number       Type             X           Y           Z
 ---------------------------------------------------------------------
      1          8           0       -1.387279    0.498917   -0.005365
      2          8           0       -0.756220   -0.584490    0.009918
      3          1           0        0.222514   -0.340563   -0.035261
      4          8           0        1.860895    0.008957   -0.007530
      5          1           0        2.038315    0.953489    0.059070
 ---------------------------------------------------------------------
 Rotational constants (GHZ):     48.4047618      5.0790471      4.5973132
 Standard basis: 6-31+G(d,p) (6D, 7F)
 There are    67 symmetry adapted basis functions of A   symmetry.
 Integral buffers will be    262144 words long.
 Raffenetti 2 integral format.
 Two-electron integral symmetry is turned on.
    67 basis functions,   110 primitive gaussians,    67 cartesian basis functions
    13 alpha electrons       13 beta electrons
       nuclear repulsion energy        66.1742428613 Hartrees.
 NAtoms=    5 NActive=    5 NUniq=    5 SFac= 7.50D-01 NAtFMM=   80 NAOKFM=F Big=F
 One-electron integrals computed using PRISM.
 NBasis=    67 RedAO= T  NBF=    67
 NBsUse=    67 1.00D-06 NBFU=    67
 Initial guess read from the read-write file.
 B after Tr=     0.000000    0.000000    0.000000
         Rot=    1.000000    0.000000    0.000000    0.000000 Ang=   0.00 deg.
 Initial guess orbital symmetries:
       Occupied  (A) (A) (A) (A) (A) (A) (A) (A) (A) (A) (A) (A)
                 (A)
       Virtual   (A) (A) (A) (A) (A) (A) (A) (A) (A) (A) (A) (A)
                 (A) (A) (A) (A) (A) (A) (A) (A) (A) (A) (A) (A)
                 (A) (A) (A) (A) (A) (A) (A) (A) (A) (A) (A) (A)
                 (A) (A) (A) (A) (A) (A) (A) (A) (A) (A) (A) (A)
                 (A) (A) (A) (A) (A) (A)
 Harris functional with IExCor= 1009 diagonalized for initial guess.
 ExpMin= 8.45D-02 ExpMax= 5.48D+03 ExpMxC= 8.25D+02 IAcc=2 IRadAn=         0 AccDes= 0.00D+00
 HarFok:  IExCor= 1009 AccDes= 0.00D+00 IRadAn=         0 IDoV= 1
 ScaDFX=  1.000000  1.000000  1.000000  1.000000
 FoFCou: FMM=F IPFlag=           0 FMFlag=      100000 FMFlg1=           0
         NFxFlg=           0 DoJE=T BraDBF=F KetDBF=T FulRan=T
         Omega=  0.000000  0.000000  1.000000  0.000000  0.000000 ICntrl=     500 IOpCl=  0
         NMat0=    1 NMatS0=    1 NMatT0=    0 NMatD0=    1 NMtDS0=    0 NMtDT0=    0
         I1Cent=           4 NGrid=           0.
 Petite list used in FoFCou.
 Requested convergence on RMS density matrix=1.00D-08 within 128 cycles.
 Requested convergence on MAX density matrix=1.00D-06.
 Requested convergence on             energy=1.00D-06.
 No special actions if energy rises.
 Keep R1 ints in memory in canonical form, NReq=3551083.
 Integral accuracy reduced to 1.0D-05 until final iterations.
 Initial convergence to 1.0D-05 achieved.  Increase integral accuracy.
 SCF Done:  E(RM062X) =  -226.481285745     A.U. after   34 cycles
             Convg  =    0.4310D-09             -V/T =  2.0088
 Calling FoFJK, ICntrl=      2127 FMM=F ISym2X=0 I1Cent= 0 IOpClX= 0 NMat=1 NMatS=1 NMatT=0.
 ***** Axes restored to original set *****
 -------------------------------------------------------------------
 Center     Atomic                   Forces (Hartrees/Bohr)
 Number     Number              X              Y              Z
 -------------------------------------------------------------------
      1        8           0.025618035   -0.004038461    0.001091422
      2        8          -0.035841253   -0.014141355    0.001917683
      3        1           0.025737439    0.059461915   -0.003954995
      4        8          -0.013005926   -0.044512734    0.000522614
      5        1          -0.002508295    0.003230634    0.000423275
 -------------------------------------------------------------------
 Cartesian Forces:  Max     0.059461915 RMS     0.023865638

 GradGradGradGradGradGradGradGradGradGradGradGradGradGradGradGradGradGrad
 Berny optimization.
 Internal  Forces:  Max     0.044094445 RMS     0.018581539
 Search for a saddle point.
 Step number   7 out of a maximum of  100
 All quantities printed in internal units (Hartrees-Bohrs-Radians)
 Update second derivatives using D2CorX and points    3    4    5    6    7
 The second derivative matrix:
                          R1        R2        R3        R4        A1
           R1           0.57030
           R2           0.09388   0.16632
           R3          -0.02983   0.05944  -0.01462
           R4          -0.00166   0.00289  -0.00246   0.56844
           A1           0.02591   0.02115  -0.02154  -0.00039   0.07336
           A2          -0.00576   0.02607  -0.00124   0.01208   0.00149
           A3          -0.01258  -0.00718   0.00067  -0.00009  -0.01934
           A4           0.00813  -0.01001   0.00491  -0.00007   0.01423
           D1          -0.00265   0.00812  -0.01045  -0.00054  -0.00440
                          A2        A3        A4        D1
           A2           0.09230
           A3          -0.00729   0.01359
           A4           0.00329   0.00148  -0.01976
           D1           0.00272   0.00230   0.00273   0.02317
     Eigenvalues ---   -0.05125  -0.01729   0.00816   0.02572   0.08056
     Eigenvalues ---    0.08779   0.17691   0.56876   0.59376
 Eigenvectors required to have negative eigenvalues:
                          R3        A4        R2        A1        D1
   1                    0.81274  -0.37770  -0.31166   0.23263   0.17446
                          R1        A2        A3        R4
   1                    0.08382   0.07231   0.05331   0.00375
 QST in optimization variable space.
                        Tangent   TS vect  // Eig F  Eigenval
   1         R1        -0.29784   0.08382  -0.04160  -0.05125
   2         R2         0.33881  -0.31166  -0.02228  -0.01729
   3         R3        -0.81928   0.81274   0.00264   0.00816
   4         R4         0.01423   0.00375   0.01007   0.02572
   5         A1        -0.12442   0.23263   0.01333   0.08056
   6         A2         0.12609   0.07231   0.00934   0.08779
   7         A3         0.07047   0.05331   0.01125   0.17691
   8         A4        -0.21261  -0.37770   0.00374   0.56876
   9         D1         0.20862   0.17446  -0.01915   0.59376
 RFO step:  Lambda0=2.323207370D-02 Lambda=-3.43779426D-02.
 Linear search not attempted -- option 19 set.
 Maximum step size (   0.300) exceeded in Quadratic search.
    -- Step size scaled by   0.311
 Iteration  1 RMS(Cart)=  0.10029195 RMS(Int)=  0.02257452
 Iteration  2 RMS(Cart)=  0.01563260 RMS(Int)=  0.00034607
 Iteration  3 RMS(Cart)=  0.00040649 RMS(Int)=  0.00000013
 Iteration  4 RMS(Cart)=  0.00000014 RMS(Int)=  0.00000000
 Variable       Old X    -DE/DX   Delta X   Delta X   Delta X     New X
                                 (Linear)    (Quad)   (Total)
    R1        2.36951  -0.02573   0.00000  -0.00615  -0.00615   2.36336
    R2        1.90803   0.02056   0.00000  -0.01991  -0.01991   1.88812
    R3        3.16619  -0.04409   0.00000   0.03541   0.03541   3.20160
[...]
      1 vectors produced by pass  8 Test12= 3.90D-15 5.56D-09 XBig12= 8.90D-15 2.18D-08.
 Inverted reduced A of dimension   106 with in-core refinement.
 Isotropic polarizability for W=    0.000000       26.03 Bohr**3.
 End of Minotr Frequency-dependent properties file   721 does not exist.
 End of Minotr Frequency-dependent properties file   722 does not exist.

 **********************************************************************

            Population analysis using the SCF density.

 **********************************************************************

 Orbital symmetries:
       Occupied  (A) (A) (A) (A) (A) (A) (A) (A) (A) (A) (A) (A)
                 (A)
       Virtual   (A) (A) (A) (A) (A) (A) (A) (A) (A) (A) (A) (A)
                 (A) (A) (A) (A) (A) (A) (A) (A) (A) (A) (A) (A)
                 (A) (A) (A) (A) (A) (A) (A) (A) (A) (A) (A) (A)
                 (A) (A) (A) (A) (A) (A) (A) (A) (A) (A) (A) (A)
                 (A) (A) (A) (A) (A) (A)
 The electronic state is 1-A.
 Alpha  occ. eigenvalues --  -19.87812 -19.75072 -19.69055  -1.41788  -1.12500
 Alpha  occ. eigenvalues --   -0.98917  -0.71077  -0.62738  -0.61659  -0.54021
 Alpha  occ. eigenvalues --   -0.42726  -0.37996  -0.36567
 Alpha virt. eigenvalues --   -0.12622   0.05551   0.09922   0.11053   0.13290
 Alpha virt. eigenvalues --    0.17636   0.18565   0.19572   0.21006   0.21413
 Alpha virt. eigenvalues --    0.24540   0.25440   0.27720   0.30876   0.33837
 Alpha virt. eigenvalues --    0.37183   0.91076   0.99261   1.02197   1.10057
 Alpha virt. eigenvalues --    1.13056   1.15440   1.18934   1.19765   1.20488
 Alpha virt. eigenvalues --    1.22032   1.28678   1.30028   1.39877   1.47562
 Alpha virt. eigenvalues --    1.51687   1.53371   1.62595   1.64834   1.71963
 Alpha virt. eigenvalues --    1.81117   1.82222   1.98371   2.15200   2.25778
 Alpha virt. eigenvalues --    2.41636   2.42742   2.51534   2.64460   2.66503
 Alpha virt. eigenvalues --    2.83856   2.84242   3.00975   3.01660   3.42065
 Alpha virt. eigenvalues --    3.44318   3.75707   4.03646   4.21879
          Condensed to atoms (all electrons):
              1          2          3          4          5
     1  O    8.094933   0.197165  -0.036677   0.013045  -0.006975
     2  O    0.197165   7.608674   0.206578  -0.126107   0.031787
     3  H   -0.036677   0.206578   0.337494   0.056998  -0.007307
     4  O    0.013045  -0.126107   0.056998   8.458829   0.232100
     5  H   -0.006975   0.031787  -0.007307   0.232100   0.378857
 Mulliken atomic charges:
              1
     1  O   -0.261490
     2  O    0.081903
     3  H    0.442914
     4  O   -0.634866
     5  H    0.371539
 Sum of Mulliken atomic charges =   0.00000
 Mulliken charges with hydrogens summed into heavy atoms:
              1
     1  O   -0.261490
     2  O    0.524818
     4  O   -0.263327
 Sum of Mulliken charges with hydrogens summed into heavy atoms =   0.00000
 APT atomic charges:
              1
     1  O   -0.455553
     2  O    0.661336
     3  H    0.279509
     4  O   -0.725149
     5  H    0.239858
 Sum of APT charges=   0.00000
 APT Atomic charges with hydrogens summed into heavy atoms:
              1
     1  O   -0.455553
     2  O    0.940845
     3  H    0.000000
     4  O   -0.485291
     5  H    0.000000
 Sum of APT charges=   0.00000
 Electronic spatial extent (au):  <R**2>=            167.4508
 Charge=              0.0000 electrons
 Dipole moment (field-independent basis, Debye):
    X=              0.1230    Y=              0.0233    Z=              0.9059  Tot=              0.9145
 Quadrupole moment (field-independent basis, Debye-Ang):
   XX=            -22.1022   YY=            -14.7279   ZZ=            -17.1622
   XY=             -2.4799   XZ=              0.1602   YZ=             -1.7345
 Traceless Quadrupole moment (field-independent basis, Debye-Ang):
   XX=             -4.1048   YY=              3.2695   ZZ=              0.8353
   XY=             -2.4799   XZ=              0.1602   YZ=             -1.7345
 Octapole moment (field-independent basis, Debye-Ang**2):
  XXX=              5.4619  YYY=              1.1390  ZZZ=              0.7386  XYY=             -2.4104
  XXY=              1.5568  XXZ=             -0.3787  XZZ=              0.5023  YZZ=             -1.1460
  YYZ=              0.2447  XYZ=              0.9926
 Hexadecapole moment (field-independent basis, Debye-Ang**3):
 XXXX=           -152.2639 YYYY=            -26.4113 ZZZZ=            -15.9852 XXXY=             -4.9208
 XXXZ=              1.1281 YYYX=             -3.4092 YYYZ=             -1.7870 ZZZX=             -0.0552
 ZZZY=             -1.5394 XXYY=            -24.9824 XXZZ=            -28.6694 YYZZ=             -7.4059
 XXYZ=             -0.9922 YYXZ=              0.5593 ZZXY=             -0.5301
 N-N= 7.534838978908D+01 E-N=-6.849172872113D+02  KE= 2.247021077285D+02
  Exact polarizability:  48.663  -0.237  16.315  -0.020  -0.372  13.112
 Approx polarizability:  83.115   2.771  20.170  -0.168  -0.245  13.966
 Calling FoFJK, ICntrl=    100127 FMM=F ISym2X=0 I1Cent= 0 IOpClX= 0 NMat=1 NMatS=1 NMatT=0.
 Full mass-weighted force constant matrix:
 Low frequencies ----1134.1873  -88.7619  -31.1959    0.0013    0.0015    0.0022
 Low frequencies ---   44.1272  278.0567  329.7063
 ******    1 imaginary frequencies (negative Signs) ****** 
 Diagonal vibrational polarizability:
       17.8382008       7.9648143      46.2805527
 Harmonic frequencies (cm**-1), IR intensities (KM/Mole), Raman scattering
 activities (A**4/AMU), depolarization ratios for plane and unpolarized
 incident light, reduced masses (AMU), force constants (mDyne/A),
 and normal coordinates:
                     1                      2                      3
                     A                      A                      A
 Frequencies -- -1134.1655               278.0339               329.6333
 Red. masses --     1.1685                 1.5143                 2.8205
 Frc consts  --     0.8856                 0.0690                 0.1806
 IR Inten    --   129.4045                95.0370                68.6856
  Atom  AN      X      Y      Z        X      Y      Z        X      Y      Z
     1   8     0.01   0.01   0.00     0.09  -0.04   0.04     0.21  -0.08  -0.05
     2   8    -0.09   0.02   0.02     0.02   0.06  -0.06    -0.03   0.14   0.07
     3   1     0.77  -0.56   0.29     0.07   0.03  -0.05     0.06   0.13   0.11
     4   8     0.03   0.00  -0.03    -0.10   0.00   0.07    -0.16  -0.08  -0.08
     5   1     0.02   0.00  -0.09    -0.35  -0.18  -0.90    -0.46   0.17   0.78
                     4                      5                      6
                     A                      A                      A
 Frequencies --   621.2588               919.5697              1333.0977
 Red. masses --     5.5652                 1.2332                 4.5546
 Frc consts  --     1.2655                 0.6144                 4.7689
 IR Inten    --   177.3429                13.9668               262.8067
  Atom  AN      X      Y      Z        X      Y      Z        X      Y      Z
     1   8    -0.01   0.09  -0.01     0.06   0.01   0.00     0.21   0.23   0.08
     2   8     0.31  -0.23   0.01    -0.05   0.05   0.00    -0.21  -0.28  -0.10
     3   1     0.52  -0.51  -0.01    -0.10   0.00  -0.02     0.19   0.80   0.25
     4   8    -0.35   0.16  -0.01    -0.07  -0.04   0.01    -0.01   0.00   0.00
     5   1     0.27   0.11   0.27     0.95  -0.26  -0.07    -0.15   0.06   0.08
                     7                      8                      9
                     A                      A                      A
 Frequencies --  1430.9323              3117.2098              3845.2214
 Red. masses --     1.2932                 1.0605                 1.0677
 Frc consts  --     1.5601                 6.0716                 9.3012
 IR Inten    --   157.9936                93.5513                85.2409
  Atom  AN      X      Y      Z        X      Y      Z        X      Y      Z
     1   8    -0.08  -0.07   0.03     0.00   0.00   0.00     0.00   0.00   0.00
     2   8     0.05   0.04  -0.05    -0.03  -0.01   0.05     0.00   0.00   0.00
     3   1     0.55   0.74   0.32     0.40   0.17  -0.90     0.01   0.00   0.00
     4   8    -0.01  -0.01   0.00     0.00   0.00   0.01     0.01   0.06  -0.01
     5   1     0.14  -0.02   0.06     0.01   0.00   0.01    -0.19  -0.96   0.22

 -------------------
 - Thermochemistry -
 -------------------
 Temperature   298.150 Kelvin.  Pressure   1.00000 Atm.
 Atom     1 has atomic number  8 and mass  15.99491
 Atom     2 has atomic number  8 and mass  15.99491
 Atom     3 has atomic number  1 and mass   1.00783
 Atom     4 has atomic number  8 and mass  15.99491
 Atom     5 has atomic number  1 and mass   1.00783
 Molecular mass:    50.00039 amu.
 Principal axes and moments of inertia in atomic units:
                           1         2         3
     Eigenvalues --    30.92526 213.71601 239.31290
           X            0.99977  -0.02147   0.00248
           Y            0.02161   0.99604  -0.08625
           Z           -0.00062   0.08628   0.99627
 This molecule is an asymmetric top.
 Rotational symmetry number  1.
 Rotational temperatures (Kelvin)      2.80075     0.40528     0.36193
 Rotational constants (GHZ):          58.35815     8.44458     7.54135
    1 imaginary frequencies ignored.
 Zero-point vibrational energy      71028.0 (Joules/Mol)
                                   16.97610 (Kcal/Mol)
 Warning -- explicit consideration of   2 degrees of freedom as
           vibrations may cause significant error
 Vibrational temperatures:    400.03   474.27   893.85  1323.05  1918.03
          (Kelvin)           2058.79  4484.96  5532.41
 
 Zero-point correction=                           0.027053 (Hartree/Particle)
 Thermal correction to Energy=                    0.030934
 Thermal correction to Enthalpy=                  0.031878
 Thermal correction to Gibbs Free Energy=         0.001931
 Sum of electronic and zero-point Energies=           -226.482637
 Sum of electronic and thermal Energies=              -226.478756
 Sum of electronic and thermal Enthalpies=            -226.477812
 Sum of electronic and thermal Free Energies=         -226.507759
 
                     E (Thermal)             CV                S
                      KCal/Mol        Cal/Mol-Kelvin    Cal/Mol-Kelvin
 Total                   19.411             10.981             63.028
 Electronic               0.000              0.000              0.000
 Translational            0.889              2.981             37.652
 Rotational               0.889              2.981             21.986
 Vibrational             17.634              5.019              3.391
 Vibration     1          0.679              1.714              1.546
 Vibration     2          0.712              1.616              1.262
                       Q            Log10(Q)             Ln(Q)
 Total Bot       0.129375D+00         -0.888151         -2.045042
 Total V=0       0.359256D+12         11.555405         26.607302
 Vib (Bot)       0.653927D-12        -12.184471        -28.055780
 Vib (Bot)    1  0.692220D+00         -0.159756         -0.367851
 Vib (Bot)    2  0.566959D+00         -0.246449         -0.567469
 Vib (V=0)       0.181587D+01          0.259084          0.596564
 Vib (V=0)    1  0.135391D+01          0.131591          0.302999
 Vib (V=0)    2  0.125594D+01          0.098968          0.227883
 Electronic      0.100000D+01          0.000000          0.000000
 Translational   0.138968D+08          7.142915         16.447170
 Rotational      0.142365D+05          4.153405          9.563568
 ***** Axes restored to original set *****
 -------------------------------------------------------------------
 Center     Atomic                   Forces (Hartrees/Bohr)
 Number     Number              X              Y              Z
 -------------------------------------------------------------------
      1        8           0.000151741   -0.000079345    0.000165817
      2        8          -0.000154955    0.000052306   -0.000051584
      3        1           0.000029749    0.000130893   -0.000057780
      4        8           0.000035184   -0.000033214   -0.000103297
      5        1          -0.000061720   -0.000070641    0.000046843
 -------------------------------------------------------------------
 Cartesian Forces:  Max     0.000165817 RMS     0.000093661

 GradGradGradGradGradGradGradGradGradGradGradGradGradGradGradGradGradGrad
 Berny optimization.
 Internal  Forces:  Max     0.000143783 RMS     0.000096493
 Search for a saddle point.
 Step number   1 out of a maximum of    2
 All quantities printed in internal units (Hartrees-Bohrs-Radians)
 Swaping is turned off.
 Second derivative matrix not updated -- analytic derivatives used.
 The second derivative matrix:
                          R1        R2        R3        R4        A1
           R1           0.53589
           R2           0.09517   0.27591
           R3           0.01245   0.10226   0.08691
           R4          -0.00767   0.00596   0.00144   0.53013
           A1           0.12416  -0.01137   0.06403   0.00966   0.32978
           A2           0.01086   0.00915   0.01586   0.00049  -0.05600
           A3           0.08460  -0.02256   0.08875   0.00583   0.06384
           A4           0.05965  -0.04014   0.08035   0.00327  -0.04969
           D1          -0.00436   0.00461  -0.01254   0.00385   0.03986
                          A2        A3        A4        D1
           A2           0.12657
           A3           0.01921   0.08345
           A4           0.03841  -0.02696   0.09444
           D1          -0.06014  -0.01250  -0.01755   0.03871
     Eigenvalues ---   -0.09727   0.00722   0.07452   0.10921   0.20264
     Eigenvalues ---    0.28377   0.34807   0.53100   0.64263
 Eigenvectors required to have negative eigenvalues:
                          R3        A4        A3        R2        R1
   1                    0.63703  -0.49097  -0.45795  -0.30379   0.16677
                          A1        A2        D1        R4
   1                   -0.13666   0.05774   0.03420   0.01213
 Angle between quadratic step and forces=  72.23 degrees.
 Linear search not attempted -- option 19 set.
 Iteration  1 RMS(Cart)=  0.00107147 RMS(Int)=  0.00000115
 Iteration  2 RMS(Cart)=  0.00000092 RMS(Int)=  0.00000000
 Variable       Old X    -DE/DX   Delta X   Delta X   Delta X     New X
                                 (Linear)    (Quad)   (Total)
    R1        2.38447  -0.00012   0.00000  -0.00006  -0.00006   2.38441
    R2        1.92516   0.00005   0.00000  -0.00013  -0.00013   1.92502
    R3        2.86172  -0.00011   0.00000   0.00035   0.00035   2.86208
    R4        1.83495  -0.00002   0.00000  -0.00004  -0.00004   1.83490
    A1        1.94248   0.00014   0.00000   0.00019   0.00019   1.94267
    A2        1.98060  -0.00014   0.00000   0.00013   0.00013   1.98072
    A3        2.44590  -0.00001   0.00000  -0.00065  -0.00065   2.44525
    A4        1.35618  -0.00006   0.00000  -0.00079  -0.00079   1.35539
    D1        0.40669   0.00009   0.00000   0.00183   0.00183   0.40852
         Item               Value     Threshold  Converged?
 Maximum Force            0.000144     0.000450     YES
 RMS     Force            0.000096     0.000300     YES
 Maximum Displacement     0.001508     0.001800     YES
 RMS     Displacement     0.001071     0.001200     YES
 Predicted change in Energy=-9.465398D-08
 Optimization completed.
    -- Stationary point found.
                           ----------------------------
                           !   Optimized Parameters   !
                           ! (Angstroms and Degrees)  !
 --------------------------                            --------------------------
 ! Name  Definition              Value          Derivative Info.                !
 --------------------------------------------------------------------------------
 ! R1    R(1,2)                  1.2618         -DE/DX =   -0.0001              !
 ! R2    R(2,3)                  1.0187         -DE/DX =    0.0                 !
 ! R3    R(3,4)                  1.5144         -DE/DX =   -0.0001              !
 ! R4    R(4,5)                  0.971          -DE/DX =    0.0                 !
 ! A1    A(1,2,3)              111.2957         -DE/DX =    0.0001              !
 ! A2    A(3,4,5)              113.4798         -DE/DX =   -0.0001              !
 ! A3    L(2,3,4,1,-1)         140.1396         -DE/DX =    0.0                 !
 ! A4    L(2,3,4,1,-2)          77.7034         -DE/DX =   -0.0001              !
 ! D1    D(1,2,4,5)             23.3015         -DE/DX =    0.0001              !
 --------------------------------------------------------------------------------
 GradGradGradGradGradGradGradGradGradGradGradGradGradGradGradGradGradGrad

 1|1|UNPC-DESKTOP-319GPER|Freq|RM062X|6-31+G(d,p)|H2O3|SAGAD|08-Feb-202
 1|0||#N Geom=AllCheck Guess=TCheck SCRF=Check GenChk RM062X/6-31+G(d,p
 ) Freq||p||0,1|O,-0.5257398405,0.4394110561,-0.0194573404|O,0.67952606
 81,0.5533667386,0.3362134296|H,1.2749399822,0.8076593132,-0.4503399135
 |O,1.4301123563,2.2213763754,0.0698599404|H,0.6023233239,2.7289118666,
 0.0637240122||Version=IA32W-G09RevA.02|State=1-A|HF=-226.5096898|RMSD=
 1.058e-009|RMSF=9.366e-005|ZeroPoint=0.0270531|Thermal=0.0309335|Dipol
 e=0.0205309,-0.0836005,-0.3493305|DipoleDeriv=-0.8808933,-1.1206297,0.
 1444512,0.0089848,-0.2765667,0.0366455,-0.2838527,-0.3352682,-0.209200
 4,1.1018958,1.4273263,-0.0788894,0.7936784,0.774134,0.0139615,0.171909
 3,0.1698394,0.1079776,0.2704207,-0.0584815,-0.0234074,-0.2364778,0.257
 9786,0.0410166,-0.0708311,0.0281017,0.3101276,-0.5313747,-0.1229051,-0
 .0354914,-0.5721062,-1.0806383,-0.1000811,0.155995,0.1238341,-0.563434
 1,0.0399516,-0.1253099,-0.006663,0.0059208,0.3250925,0.0084574,0.02677
 95,0.013493,0.3545294|Polar=30.6714107,16.0725565,34.3074333,0.2383367
 ,-0.2852867,13.1114445|PG=C01 [X(H2O3)]|NImag=1||0.53542412,0.05973343
 ,0.03745167,0.12357014,0.00530328,0.06286983,-0.46091778,-0.02770571,-
 0.14114344,0.53985861,0.00740806,-0.04382064,0.01421231,-0.02058047,0.
 07464912,-0.12650889,0.00067217,-0.09474461,0.03847138,-0.05387835,0.3
 4048419,-0.05258009,-0.00652372,0.02288921,-0.08603524,-0.01612226,0.0
 9193543,0.15438852,-0.02996109,-0.00495745,-0.01207057,0.04861867,0.06
 132440,0.01251977,0.00171478,-0.03603476,-0.01466391,0.00079386,0.0259
 8486,0.14876525,0.05233517,-0.26603259,-0.13111778,-0.02396693,0.26192
 971,-0.01238509,-0.03120194,-0.00210672,-0.01360862,0.03789618,-0.0082
 7477,-0.01616203,-0.01768149,-0.00161296,0.44616719,-0.03401904,0.0031
 6299,-0.00615572,-0.01154862,-0.07138804,0.03523221,0.01323132,-0.0205
 8701,-0.02864974,-0.19749021,0.24186629,0.01696411,-0.00456386,0.00473
 520,-0.03757385,-0.01541927,0.01946568,0.00999381,0.01951718,-0.021404
 38,0.01024413,0.00110651,0.00199487,-0.00954115,0.00569793,-0.00320919
 ,0.02070304,-0.00860151,0.00437685,0.00038884,-0.00269086,-0.00137061,
 -0.40401145,0.22982655,0.00037181,0.39246073,-0.00316136,0.00816343,-0
 .00128930,0.01121613,-0.02076485,0.00545420,0.00769987,0.00025482,-0.0
 0051236,0.20847746,-0.15305424,-0.00064057,-0.22423211,0.16540085,0.00
 063855,-0.00220545,0.00115472,-0.00851934,0.00275014,0.00082734,0.0062
 9932,0.00400055,-0.00047760,0.00175032,-0.00153326,-0.00479137,-0.0001
 6885,-0.00301197,0.00328691||-0.00015174,0.00007934,-0.00016582,0.0001
 5496,-0.00005231,0.00005158,-0.00002975,-0.00013089,0.00005778,-0.0000
 3518,0.00003321,0.00010330,0.00006172,0.00007064,-0.00004684|||@


 ... THIS SEEMS PLAINLY ABSURD; BUT WHOEVER WISHES TO BECOME A 
 PHILOSOPHER MUST LEARN NOT TO BE FRIGHTENED BY ABSURDITIES.

                          -- BERTRAND RUSSELL
 Job cpu time:  0 days  0 hours  0 minutes 12.0 seconds.
 File lengths (MBytes):  RWF=      6 Int=      0 D2E=      0 Chk=      1 Scr=      1
 Normal termination of Gaussian 09 at Mon Feb 08 23:04:48 2021.
