 Entering Link 1 = C:\G09W\l1.exe PID=      7364.
  
 Copyright (c) 1988,1990,1992,1993,1995,1998,2003,2009, Gaussian, Inc.
                  All Rights Reserved.
  
 This is part of the Gaussian(R) 09 program.  It is based on
 the Gaussian(R) 03 system (copyright 2003, Gaussian, Inc.),
 the Gaussian(R) 98 system (copyright 1998, Gaussian, Inc.),
 the Gaussian(R) 94 system (copyright 1995, Gaussian, Inc.),
 the Gaussian 92(TM) system (copyright 1992, Gaussian, Inc.),
 the Gaussian 90(TM) system (copyright 1990, Gaussian, Inc.),
 the Gaussian 88(TM) system (copyright 1988, Gaussian, Inc.),
 the Gaussian 86(TM) system (copyright 1986, Carnegie Mellon
 University), and the Gaussian 82(TM) system (copyright 1983,
 Carnegie Mellon University). Gaussian is a federally registered
 trademark of Gaussian, Inc.
  
 This software contains proprietary and confidential information,
 including trade secrets, belonging to Gaussian, Inc.
  
 This software is provided under written license and may be
 used, copied, transmitted, or stored only in accord with that
 written license.
  
 The following legend is applicable only to US Government
 contracts under FAR:
  
                    RESTRICTED RIGHTS LEGEND
  
 Use, reproduction and disclosure by the US Government is
 subject to restrictions as set forth in subparagraphs (a)
 and (c) of the Commercial Computer Software - Restricted
 Rights clause in FAR 52.227-19.
  
 Gaussian, Inc.
 340 Quinnipiac St., Bldg. 40, Wallingford CT 06492
  
  
 ---------------------------------------------------------------
 Warning -- This program may not be used in any manner that
 competes with the business of Gaussian, Inc. or will provide
 assistance to any competitor of Gaussian, Inc.  The licensee
 of this program is prohibited from giving any competitor of
 Gaussian, Inc. access to this program.  By using this program,
 the user acknowledges that Gaussian, Inc. is engaged in the
 business of creating and licensing software in the field of
 computational chemistry and represents and warrants to the
 licensee that it is not a competitor of Gaussian, Inc. and that
 it will not use this program in any manner prohibited above.
 ---------------------------------------------------------------
  

 Cite this work as:
 Gaussian 09, Revision A.02,
 M. J. Frisch, G. W. Trucks, H. B. Schlegel, G. E. Scuseria, 
 M. A. Robb, J. R. Cheeseman, G. Scalmani, V. Barone, B. Mennucci, 
 G. A. Petersson, H. Nakatsuji, M. Caricato, X. Li, H. P. Hratchian, 
 A. F. Izmaylov, J. Bloino, G. Zheng, J. L. Sonnenberg, M. Hada, 
 M. Ehara, K. Toyota, R. Fukuda, J. Hasegawa, M. Ishida, T. Nakajima, 
 Y. Honda, O. Kitao, H. Nakai, T. Vreven, J. A. Montgomery, Jr., 
 J. E. Peralta, F. Ogliaro, M. Bearpark, J. J. Heyd, E. Brothers, 
 K. N. Kudin, V. N. Staroverov, R. Kobayashi, J. Normand, 
 K. Raghavachari, A. Rendell, J. C. Burant, S. S. Iyengar, J. Tomasi, 
 M. Cossi, N. Rega, J. M. Millam, M. Klene, J. E. Knox, J. B. Cross, 
 V. Bakken, C. Adamo, J. Jaramillo, R. Gomperts, R. E. Stratmann, 
 O. Yazyev, A. J. Austin, R. Cammi, C. Pomelli, J. W. Ochterski, 
 R. L. Martin, K. Morokuma, V. G. Zakrzewski, G. A. Voth, 
 P. Salvador, J. J. Dannenberg, S. Dapprich, A. D. Daniels, 
 O. Farkas, J. B. Foresman, J. V. Ortiz, J. Cioslowski, 
 and D. J. Fox, Gaussian, Inc., Wallingford CT, 2009.
 
 ******************************************
 Gaussian 09:  IA32W-G09RevA.02 11-Jun-2009
                09-Feb-2021 
 ******************************************
 %chk=D:\Documents\rayGit\FQ\quimicaComputacional\proyecto\decompositionHydrogenP
 eroxide\descompositionByRadicals\gasPhase\step4\ts\Q2ST\ts\martes\topRight\ts.ch
 k
 %mem=1500MB
 %nprocshared=4
 Will use up to    4 processors via shared memory.
 ----------------------------------------------------------------------
 # opt=(calcfc,ts,noeigen,maxcycles=100) freq=noraman 6-31+g(d,p) m062x
 ----------------------------------------------------------------------
 1/5=1,6=100,10=4,11=1,14=-1,18=20,26=3,38=1/1,3;
 2/9=110,12=2,17=6,18=5,40=1/2;
 3/5=1,6=6,7=111,11=2,16=1,25=1,30=1,71=2,74=-55/1,2,3;
 4//1;
 5/5=2,38=5/2;
 8/6=4,10=90,11=11/1;
 11/6=1,8=1,9=11,15=111,16=1/1,2,10;
 10/6=1,7=6,13=1/2;
 6/7=2,8=2,9=2,10=2,28=1/1;
 7/10=1,18=20,25=1/1,2,3,16;
 1/5=1,6=100,10=4,11=1,14=-1,18=20/3(2);
 2/9=110/2;
 99//99;
 2/9=110/2;
 3/5=1,6=6,7=111,11=2,16=1,25=1,30=1,71=1,74=-55/1,2,3;
 4/5=5,16=3/1;
 5/5=2,38=5/2;
 7//1,2,3,16;
 1/5=1,6=100,11=1,14=-1,18=20/3(-5);
 2/9=110/2;
 6/7=2,8=2,9=2,10=2,19=2,28=1/1;
 99/9=1/99;
 ------------
 ts OOH vs OH
 ------------
 Symbolic Z-matrix:
 Charge =  0 Multiplicity = 1
 O                    -2.42784   1.18873   0. 
 O                    -1.16932   0.7906    0. 
 H                     0.01113   0.85092   0. 
 O                     0.88237   0.05509   0. 
 H                     1.54685  -0.55188   0. 
 

 GradGradGradGradGradGradGradGradGradGradGradGradGradGradGradGradGradGrad
 Berny optimization.
 Initialization pass.
                           ----------------------------
                           !    Initial Parameters    !
                           ! (Angstroms and Degrees)  !
 --------------------------                            --------------------------
 ! Name  Definition              Value          Derivative Info.                !
 --------------------------------------------------------------------------------
 ! R1    R(1,2)                  1.32           calculate D2E/DX2 analytically  !
 ! R2    R(2,3)                  1.182          calculate D2E/DX2 analytically  !
 ! R3    R(3,4)                  1.18           calculate D2E/DX2 analytically  !
 ! R4    R(4,5)                  0.9            calculate D2E/DX2 analytically  !
 ! A1    A(1,2,3)              159.5204         calculate D2E/DX2 analytically  !
 ! A2    A(2,3,4)              134.6647         calculate D2E/DX2 analytically  !
 ! A3    L(3,4,5,2,-1)         180.0            calculate D2E/DX2 analytically  !
 ! A4    L(3,4,5,2,-2)         180.0            calculate D2E/DX2 analytically  !
 ! D1    D(1,2,3,4)            180.0            calculate D2E/DX2 analytically  !
 --------------------------------------------------------------------------------
 Trust Radius=3.00D-01 FncErr=1.00D-07 GrdErr=1.00D-06
 Number of steps in this run= 100 maximum allowed number of steps= 100.
 Search for a saddle point of order  1.
 GradGradGradGradGradGradGradGradGradGradGradGradGradGradGradGradGradGrad

                          Input orientation:                          
 ---------------------------------------------------------------------
 Center     Atomic      Atomic             Coordinates (Angstroms)
 Number     Number       Type             X           Y           Z
 ---------------------------------------------------------------------
      1          8           0       -2.427845    1.188726    0.000000
      2          8           0       -1.169316    0.790598    0.000000
      3          1           0        0.011132    0.850916    0.000000
      4          8           0        0.882368    0.055085    0.000000
      5          1           0        1.546847   -0.551883    0.000000
 ---------------------------------------------------------------------
                    Distance matrix (angstroms):
                    1          2          3          4          5
     1  O    0.000000
     2  O    1.320000   0.000000
     3  H    2.462260   1.181988   0.000000
     4  O    3.498950   2.179539   1.180000   0.000000
     5  H    4.339112   3.029818   2.079968   0.899968   0.000000
 Stoichiometry    H2O3
 Framework group  CS[SG(H2O3)]
 Deg. of freedom     7
 Full point group                 CS      NOp   2
 Largest Abelian subgroup         CS      NOp   2
 Largest concise Abelian subgroup C1      NOp   1
                         Standard orientation:                         
 ---------------------------------------------------------------------
 Center     Atomic      Atomic             Coordinates (Angstroms)
 Number     Number       Type             X           Y           Z
 ---------------------------------------------------------------------
      1          8           0       -0.084902    1.739899    0.000000
      2          8           0        0.000000    0.422633    0.000000
      3          1           0        0.483910   -0.655758    0.000000
      4          8           0        0.057809   -1.756139    0.000000
      5          1           0       -0.267171   -2.595383    0.000000
 ---------------------------------------------------------------------
 Rotational constants (GHZ):   1422.1366363      4.6906855      4.6752649
 Standard basis: 6-31+G(d,p) (6D, 7F)
 There are    50 symmetry adapted basis functions of A'  symmetry.
 There are    17 symmetry adapted basis functions of A"  symmetry.
 Integral buffers will be    262144 words long.
 Raffenetti 2 integral format.
 Two-electron integral symmetry is turned on.
    67 basis functions,   110 primitive gaussians,    67 cartesian basis functions
    13 alpha electrons       13 beta electrons
       nuclear repulsion energy        67.0949761369 Hartrees.
 NAtoms=    5 NActive=    5 NUniq=    5 SFac= 7.50D-01 NAtFMM=   80 NAOKFM=F Big=F
 One-electron integrals computed using PRISM.
 NBasis=    67 RedAO= T  NBF=    50    17
 NBsUse=    67 1.00D-06 NBFU=    50    17
 Harris functional with IExCor= 1009 diagonalized for initial guess.
 ExpMin= 8.45D-02 ExpMax= 5.48D+03 ExpMxC= 8.25D+02 IAcc=2 IRadAn=         0 AccDes= 0.00D+00
 HarFok:  IExCor= 1009 AccDes= 0.00D+00 IRadAn=         0 IDoV= 1
 ScaDFX=  1.000000  1.000000  1.000000  1.000000
 FoFCou: FMM=F IPFlag=           0 FMFlag=      100000 FMFlg1=           0
         NFxFlg=           0 DoJE=T BraDBF=F KetDBF=T FulRan=T
         Omega=  0.000000  0.000000  1.000000  0.000000  0.000000 ICntrl=     500 IOpCl=  0
         NMat0=    1 NMatS0=    1 NMatT0=    0 NMatD0=    1 NMtDS0=    0 NMtDT0=    0
         I1Cent=           4 NGrid=           0.
 Petite list used in FoFCou.
 Initial guess orbital symmetries:
       Occupied  (A') (A') (A') (A') (A') (A') (A') (A') (A') (A")
                 (A") (A') (A')
       Virtual   (A") (A') (A') (A') (A') (A") (A') (A') (A") (A')
                 (A') (A") (A') (A') (A') (A') (A') (A') (A") (A')
                 (A') (A") (A') (A') (A") (A') (A') (A") (A') (A")
                 (A') (A') (A") (A') (A') (A") (A') (A') (A") (A')
                 (A') (A") (A') (A') (A") (A') (A') (A") (A') (A')
                 (A') (A') (A') (A')
 The electronic state of the initial guess is 1-A'.
 Requested convergence on RMS density matrix=1.00D-08 within 128 cycles.
 Requested convergence on MAX density matrix=1.00D-06.
 Requested convergence on             energy=1.00D-06.
 No special actions if energy rises.
 Keep R1 ints in memory in canonical form, NReq=3551244.
 Integral accuracy reduced to 1.0D-05 until final iterations.
 Initial convergence to 1.0D-05 achieved.  Increase integral accuracy.
 SCF Done:  E(RM062X) =  -226.473188638     A.U. after   19 cycles
             Convg  =    0.6468D-08             -V/T =  2.0091
 Range of M.O.s used for correlation:     1    67
 NBasis=    67 NAE=    13 NBE=    13 NFC=     0 NFV=     0
 NROrb=     67 NOA=    13 NOB=    13 NVA=    54 NVB=    54

 **** Warning!!: The largest alpha MO coefficient is  0.32144041D+02

 Symmetrizing basis deriv contribution to polar:
 IMax=3 JMax=2 DiffMx= 0.00D+00
 G2DrvN: will do     6 centers at a time, making    1 passes doing MaxLOS=2.
 Calling FoFCou, ICntrl=  3107 FMM=F I1Cent=   0 AccDes= 0.00D+00.
 FoFDir/FoFCou used for L=0 through L=2.
 End of G2Drv Frequency-dependent properties file   721 does not exist.
 End of G2Drv Frequency-dependent properties file   722 does not exist.
          IDoAtm=11111
          Differentiating once with respect to nuclear coordinates.
          Keep R1 ints in memory in canonical form, NReq=3416970.
          There are    18 degrees of freedom in the 1st order CPHF.  IDoFFX=5.
     12 vectors produced by pass  0 Test12= 3.90D-11 5.56D-07 XBig12= 1.77D-01 3.48D-01.
 AX will form    12 AO Fock derivatives at one time.
     12 vectors produced by pass  1 Test12= 3.90D-11 5.56D-07 XBig12= 1.31D-02 6.95D-02.
     12 vectors produced by pass  2 Test12= 3.90D-11 5.56D-07 XBig12= 3.06D-04 5.79D-03.
     12 vectors produced by pass  3 Test12= 3.90D-11 5.56D-07 XBig12= 6.72D-06 6.46D-04.
     12 vectors produced by pass  4 Test12= 3.90D-11 5.56D-07 XBig12= 5.92D-08 6.64D-05.
      8 vectors produced by pass  5 Test12= 3.90D-11 5.56D-07 XBig12= 3.38D-10 6.61D-06.
 Inverted reduced A of dimension    68 with in-core refinement.
 End of Minotr Frequency-dependent properties file   721 does not exist.
 End of Minotr Frequency-dependent properties file   722 does not exist.

 **********************************************************************

            Population analysis using the SCF density.

 **********************************************************************

 Orbital symmetries:
       Occupied  (A') (A') (A') (A') (A') (A') (A') (A') (A") (A')
                 (A') (A') (A")
       Virtual   (A") (A') (A') (A') (A") (A') (A') (A') (A") (A')
                 (A') (A") (A') (A') (A') (A') (A') (A") (A') (A')
                 (A") (A') (A') (A') (A") (A') (A') (A") (A') (A')
                 (A") (A') (A") (A') (A') (A') (A") (A") (A') (A')
                 (A') (A") (A') (A') (A") (A') (A') (A") (A') (A')
                 (A') (A') (A') (A')
 The electronic state is 1-A'.
 Alpha  occ. eigenvalues --  -19.86246 -19.86175 -19.61397  -1.38313  -1.09343
 Alpha  occ. eigenvalues --   -1.01463  -0.72251  -0.62455  -0.59703  -0.55714
 Alpha  occ. eigenvalues --   -0.42576  -0.36240  -0.35836
 Alpha virt. eigenvalues --   -0.20177   0.04498   0.08236   0.11412   0.13743
 Alpha virt. eigenvalues --    0.14566   0.15145   0.19267   0.20446   0.23571
 Alpha virt. eigenvalues --    0.24293   0.26087   0.31062   0.38553   0.43055
 Alpha virt. eigenvalues --    0.48440   0.84084   1.07705   1.07970   1.10154
 Alpha virt. eigenvalues --    1.12956   1.13453   1.16367   1.22276   1.25444
 Alpha virt. eigenvalues --    1.29087   1.33320   1.39775   1.43739   1.58063
 Alpha virt. eigenvalues --    1.58235   1.58987   1.61010   1.64449   1.77893
 Alpha virt. eigenvalues --    1.85366   1.87551   1.88815   1.89863   1.93419
 Alpha virt. eigenvalues --    2.19596   2.21686   2.32240   2.54845   2.56148
 Alpha virt. eigenvalues --    2.76717   2.88990   2.99091   3.26815   3.51493
 Alpha virt. eigenvalues --    3.73199   3.87973   4.20771   4.91561
          Condensed to atoms (all electrons):
              1          2          3          4          5
     1  O    7.876130   0.235272  -0.017536  -0.039950   0.000096
     2  O    0.235272   7.697660   0.065153  -0.020765   0.008437
     3  H   -0.017536   0.065153   0.237462   0.203929  -0.012877
     4  O   -0.039950  -0.020765   0.203929   8.441009   0.309552
     5  H    0.000096   0.008437  -0.012877   0.309552   0.285117
 Mulliken atomic charges:
              1
     1  O   -0.054012
     2  O    0.014243
     3  H    0.523869
     4  O   -0.893774
     5  H    0.409675
 Sum of Mulliken atomic charges =   0.00000
 Mulliken charges with hydrogens summed into heavy atoms:
              1
     1  O   -0.054012
     2  O    0.014243
     4  O    0.039769
 Sum of Mulliken charges with hydrogens summed into heavy atoms =   0.00000
 APT atomic charges:
              1
     1  O    0.351318
     2  O   -0.409918
     3  H    0.369322
     4  O   -1.215538
     5  H    0.904816
 Sum of APT charges=   0.00000
 APT Atomic charges with hydrogens summed into heavy atoms:
              1
     1  O    0.351318
     2  O   -0.409918
     3  H    0.000000
     4  O    0.058600
     5  H    0.000000
 Sum of APT charges=   0.00000
 Electronic spatial extent (au):  <R**2>=            244.0837
 Charge=              0.0000 electrons
 Dipole moment (field-independent basis, Debye):
    X=              0.1731    Y=              1.0533    Z=              0.0000  Tot=              1.0674
 Quadrupole moment (field-independent basis, Debye-Ang):
   XX=            -18.1256   YY=            -14.7611   ZZ=            -17.4283
   XY=              1.6212   XZ=              0.0000   YZ=              0.0000
 Traceless Quadrupole moment (field-independent basis, Debye-Ang):
   XX=             -1.3539   YY=              2.0105   ZZ=             -0.6566
   XY=              1.6212   XZ=              0.0000   YZ=              0.0000
 Octapole moment (field-independent basis, Debye-Ang**2):
  XXX=             -0.0679  YYY=            -10.6370  ZZZ=              0.0000  XYY=             -6.4004
  XXY=              1.0508  XXZ=              0.0000  XZZ=             -0.1663  YZZ=              3.6016
  YYZ=              0.0000  XYZ=              0.0000
 Hexadecapole moment (field-independent basis, Debye-Ang**3):
 XXXX=            -16.7552 YYYY=           -179.5884 ZZZZ=            -14.9309 XXXY=              4.8467
 XXXZ=              0.0000 YYYX=             19.3031 YYYZ=              0.0000 ZZZX=              0.0000
 ZZZY=              0.0000 XXYY=            -46.3076 XXZZ=             -5.3003 YYZZ=            -44.1648
 XXYZ=              0.0000 YYXZ=              0.0000 ZZXY=              1.4742
 N-N= 6.709497613694D+01 E-N=-6.681719470001D+02  KE= 2.244241411094D+02
 Symmetry A'   KE= 2.157668139656D+02
 Symmetry A"   KE= 8.657327143817D+00
  Exact polarizability:   0.000   0.000   0.000   0.000   0.000   0.000
 Approx polarizability:  11.658  -2.913 101.005   0.000   0.000  12.395
 Calling FoFJK, ICntrl=    100147 FMM=F ISym2X=1 I1Cent= 0 IOpClX= 0 NMat=1 NMatS=1 NMatT=0.
 ***** Axes restored to original set *****
 -------------------------------------------------------------------
 Center     Atomic                   Forces (Hartrees/Bohr)
 Number     Number              X              Y              Z
 -------------------------------------------------------------------
      1        8           0.129004528   -0.021762460    0.000000000
      2        8          -0.178889166    0.013359588    0.000000000
      3        1           0.090700543   -0.043357285    0.000000000
      4        8          -0.094751719    0.094413279    0.000000000
      5        1           0.053935813   -0.042653122    0.000000000
 -------------------------------------------------------------------
 Cartesian Forces:  Max     0.178889166 RMS     0.073946893

 GradGradGradGradGradGradGradGradGradGradGradGradGradGradGradGradGradGrad
 Berny optimization.
 Internal  Forces:  Max     0.129560584 RMS     0.059068588
 Search for a saddle point.
 Step number   1 out of a maximum of  100
 All quantities printed in internal units (Hartrees-Bohrs-Radians)
 Swaping is turned off.
 Second derivative matrix not updated -- analytic derivatives used.
 The second derivative matrix:
                          R1        R2        R3        R4        A1
           R1           0.34430
           R2           0.03751   0.14583
           R3          -0.00755   0.14089   0.13196
           R4          -0.00952   0.01130  -0.01650   0.85181
           A1           0.00061  -0.04695   0.02751   0.00169  -0.00289
           A2           0.01930   0.04874   0.05158   0.00459  -0.04081
           A3           0.00944   0.00490   0.00240  -0.00299  -0.01111
           A4           0.00000   0.00000   0.00000   0.00000   0.00000
           D1           0.00000   0.00000   0.00000   0.00000   0.00000
                          A2        A3        A4        D1
           A2           0.10660
           A3           0.01986  -0.08993
           A4           0.00000   0.00000  -0.01434
           D1           0.00000   0.00000  -0.00048  -0.00400
     Eigenvalues ---   -0.09287  -0.06242  -0.01436  -0.00398   0.03863
     Eigenvalues ---    0.09607   0.29398   0.36182   0.85247
 Eigenvectors required to have negative eigenvalues:
                          A3        A1        A2        R2        R3
   1                    0.98762   0.12442  -0.07182   0.04476  -0.03798
                          R1        R4        D1        A4
   1                   -0.02279   0.00182   0.00000   0.00000
 RFO step:  Lambda0=6.960513136D-04 Lambda=-1.18341316D-01.
 Linear search not attempted -- option 19 set.
 Maximum step size (   0.300) exceeded in Quadratic search.
    -- Step size scaled by   0.263
 Iteration  1 RMS(Cart)=  0.05639982 RMS(Int)=  0.00383944
 Iteration  2 RMS(Cart)=  0.00227888 RMS(Int)=  0.00003215
 Iteration  3 RMS(Cart)=  0.00002444 RMS(Int)=  0.00000000
 Iteration  4 RMS(Cart)=  0.00000000 RMS(Int)=  0.00000000
 ClnCor:  largest displacement from symmetrization is 3.48D-02 for atom     4.
 Variable       Old X    -DE/DX   Delta X   Delta X   Delta X     New X
                                 (Linear)    (Quad)   (Total)
    R1        2.49444  -0.12956   0.00000  -0.09052  -0.09066   2.40378
    R2        2.23363   0.05025   0.00000   0.15247   0.15246   2.38610
    R3        2.22988  -0.06505   0.00000  -0.17502  -0.17555   2.05433
    R4        1.70069   0.06859   0.00000   0.01242   0.01165   1.71234
    A1        2.78416  -0.04527   0.00000   0.02837   0.02862   2.81277
    A2        2.35034   0.03219   0.00000   0.06326   0.06348   2.41382
    A3        3.14159   0.00832   0.00000  -0.03766  -0.03569   3.10590
    A4        3.14159   0.00000   0.00000  -0.12814   0.00000   3.14159
    D1        3.14159   0.00000   0.00000  -0.07162   0.00000   3.14159
         Item               Value     Threshold  Converged?
 Maximum Force            0.129561     0.000450     NO 
 RMS     Force            0.059069     0.000300     NO 
 Maximum Displacement     0.093845     0.001800     NO 
 RMS     Displacement     0.054380     0.001200     NO 
 Predicted change in Energy=-3.170743D-02
 GradGradGradGradGradGradGradGradGradGradGradGradGradGradGradGradGradGrad

                          Input orientation:                          
 ---------------------------------------------------------------------
 Center     Atomic      Atomic             Coordinates (Angstroms)
 Number     Number       Type             X           Y           Z
 ---------------------------------------------------------------------
      1          8           0       -2.413154    1.193608    0.000000
      2          8           0       -1.206248    0.791833    0.000000
      3          1           0        0.056385    0.801256    0.000000
      4          8           0        0.873457    0.084185    0.000000
      5          1           0        1.532746   -0.537438    0.000000
 ---------------------------------------------------------------------
                    Distance matrix (angstroms):
                    1          2          3          4          5
     1  O    0.000000
     2  O    1.272024   0.000000
     3  H    2.500513   1.262668   0.000000
     4  O    3.468808   2.196801   1.087105   0.000000
     5  H    4.308903   3.044511   1.992923   0.906134   0.000000
 Stoichiometry    H2O3
 Framework group  CS[SG(H2O3)]
 Deg. of freedom     7
 Full point group                 CS      NOp   2
 Largest Abelian subgroup         CS      NOp   2
 Largest concise Abelian subgroup C1      NOp   1
                         Standard orientation:                         
 ---------------------------------------------------------------------
 Center     Atomic      Atomic             Coordinates (Angstroms)
 Number     Number       Type             X           Y           Z
 ---------------------------------------------------------------------
      1          8           0       -0.011464    1.718586    0.000000
      2          8           0        0.000000    0.446614    0.000000
      3          1           0        0.418502   -0.744682    0.000000
      4          8           0        0.005261   -1.750181    0.000000
      5          1           0       -0.368878   -2.575468    0.000000
 ---------------------------------------------------------------------
 Rotational constants (GHZ):   1600.1785434      4.7473941      4.7333513
 Standard basis: 6-31+G(d,p) (6D, 7F)
 There are    50 symmetry adapted basis functions of A'  symmetry.
 There are    17 symmetry adapted basis functions of A"  symmetry.
 Integral buffers will be    262144 words long.
 Raffenetti 2 integral format.
 Two-electron integral symmetry is turned on.
    67 basis functions,   110 primitive gaussians,    67 cartesian basis functions
    13 alpha electrons       13 beta electrons
       nuclear repulsion energy        68.0552837727 Hartrees.
 NAtoms=    5 NActive=    5 NUniq=    5 SFac= 7.50D-01 NAtFMM=   80 NAOKFM=F Big=F
 One-electron integrals computed using PRISM.
 NBasis=    67 RedAO= T  NBF=    50    17
 NBsUse=    67 1.00D-06 NBFU=    50    17
 Initial guess read from the read-write file.
 B after Tr=     0.000000    0.000000    0.000000
         Rot=    1.000000    0.000000    0.000000    0.000000 Ang=   0.00 deg.
 Initial guess orbital symmetries:
       Occupied  (A') (A') (A') (A') (A') (A') (A') (A') (A") (A')
                 (A') (A') (A")
       Virtual   (A") (A') (A') (A') (A") (A') (A') (A') (A") (A')
                 (A') (A") (A') (A') (A') (A') (A') (A") (A') (A')
                 (A") (A') (A') (A') (A") (A') (A') (A") (A') (A')
                 (A") (A') (A") (A') (A') (A') (A") (A") (A') (A')
                 (A') (A") (A') (A') (A") (A') (A') (A") (A') (A')
                 (A') (A') (A') (A')
 Harris functional with IExCor= 1009 diagonalized for initial guess.
 ExpMin= 8.45D-02 ExpMax= 5.48D+03 ExpMxC= 8.25D+02 IAcc=2 IRadAn=         0 AccDes= 0.00D+00
 HarFok:  IExCor= 1009 AccDes= 0.00D+00 IRadAn=         0 IDoV= 1
 ScaDFX=  1.000000  1.000000  1.000000  1.000000
 FoFCou: FMM=F IPFlag=           0 FMFlag=      100000 FMFlg1=           0
         NFxFlg=           0 DoJE=T BraDBF=F KetDBF=T FulRan=T
         Omega=  0.000000  0.000000  1.000000  0.000000  0.000000 ICntrl=     500 IOpCl=  0
         NMat0=    1 NMatS0=    1 NMatT0=    0 NMatD0=    1 NMtDS0=    0 NMtDT0=    0
         I1Cent=           4 NGrid=           0.
 Petite list used in FoFCou.
 Requested convergence on RMS density matrix=1.00D-08 within 128 cycles.
 Requested convergence on MAX density matrix=1.00D-06.
 Requested convergence on             energy=1.00D-06.
 No special actions if energy rises.
 Keep R1 ints in memory in canonical form, NReq=3551244.
 Integral accuracy reduced to 1.0D-05 until final iterations.
 Initial convergence to 1.0D-05 achieved.  Increase integral accuracy.
 SCF Done:  E(RM062X) =  -226.503861167     A.U. after   17 cycles
             Convg  =    0.5950D-08             -V/T =  2.0086
 Calling FoFJK, ICntrl=      2127 FMM=F ISym2X=1 I1Cent= 0 IOpClX= 0 NMat=1 NMatS=1 NMatT=0.
 ***** Axes restored to original set *****
 -------------------------------------------------------------------
 Center     Atomic                   Forces (Hartrees/Bohr)
 Number     Number              X              Y              Z
 -------------------------------------------------------------------
      1        8           0.096881279   -0.017729787    0.000000000
      2        8          -0.150094170    0.015951319    0.000000000
      3        1           0.086554122   -0.044372251    0.000000000
      4        8          -0.073770158    0.081069280    0.000000000
      5        1           0.040428926   -0.034918561    0.000000000
 -------------------------------------------------------------------
 Cartesian Forces:  Max     0.150094170 RMS     0.061542188

 GradGradGradGradGradGradGradGradGradGradGradGradGradGradGradGradGradGrad
 Berny optimization.
 Internal  Forces:  Max     0.097521734 RMS     0.047474749
 Search for a saddle point.
 Step number   2 out of a maximum of  100
 All quantities printed in internal units (Hartrees-Bohrs-Radians)
 Swaping is turned off.
 Update second derivatives using D2CorX and points    1    2
 The second derivative matrix:
                          R1        R2        R3        R4        A1
           R1           0.36549
           R2           0.03124   0.14238
           R3           0.02372   0.13341   0.17750
           R4          -0.00838   0.01026  -0.01458   0.85178
           A1          -0.00491  -0.04553   0.01943   0.00137  -0.00146
           A2           0.01639   0.04745   0.04800   0.00415  -0.04014
           A3           0.00855   0.00683   0.00054  -0.00282  -0.01081
           A4           0.00000   0.00000   0.00000   0.00000   0.00000
           D1           0.00000   0.00000   0.00000   0.00000   0.00000
                          A2        A3        A4        D1
           A2           0.10612
           A3           0.02066  -0.09042
           A4           0.00000   0.00000  -0.01434
           D1           0.00000   0.00000  -0.00048  -0.00400
     Eigenvalues ---   -0.09322  -0.04324  -0.01436  -0.00398   0.04759
     Eigenvalues ---    0.10336   0.29399   0.39057   0.85235
 Eigenvectors required to have negative eigenvalues:
                          A3        A2        A1        R1        R3
   1                    0.99304  -0.08901   0.07495  -0.01497   0.01004
                          R4        R2        D1        A4
   1                    0.00327  -0.00024   0.00000   0.00000
 RFO step:  Lambda0=2.918242838D-07 Lambda=-8.43473364D-02.
 Linear search not attempted -- option 19 set.
 Maximum step size (   0.300) exceeded in Quadratic search.
    -- Step size scaled by   0.268
 Iteration  1 RMS(Cart)=  0.05550920 RMS(Int)=  0.00577827
 Iteration  2 RMS(Cart)=  0.00327463 RMS(Int)=  0.00006668
 Iteration  3 RMS(Cart)=  0.00005066 RMS(Int)=  0.00000002
 Iteration  4 RMS(Cart)=  0.00000001 RMS(Int)=  0.00000000
 ClnCor:  largest displacement from symmetrization is 3.26D-02 for atom     4.
 Variable       Old X    -DE/DX   Delta X   Delta X   Delta X     New X
                                 (Linear)    (Quad)   (Total)
    R1        2.40378  -0.09752   0.00000  -0.06301  -0.06310   2.34067
    R2        2.38610   0.05321   0.00000   0.17032   0.17032   2.55641
    R3        2.05433  -0.05549   0.00000  -0.15790  -0.15847   1.89586
    R4        1.71234   0.05338   0.00000   0.00998   0.00932   1.72167
    A1        2.81277  -0.03318   0.00000   0.07441   0.07454   2.88731
    A2        2.41382   0.02996   0.00000   0.06305   0.06345   2.47727
    A3        3.10590   0.00395   0.00000   0.00117   0.00270   3.10860
    A4        3.14159   0.00000   0.00000  -0.13087   0.00000   3.14159
    D1        3.14159   0.00000   0.00000  -0.07314   0.00000   3.14159
         Item               Value     Threshold  Converged?
 Maximum Force            0.097522     0.000450     NO 
 RMS     Force            0.047475     0.000300     NO 
 Maximum Displacement     0.098678     0.001800     NO 
 RMS     Displacement     0.055280     0.001200     NO 
 Predicted change in Energy=-2.333915D-02
 GradGradGradGradGradGradGradGradGradGradGradGradGradGradGradGradGradGrad

                          Input orientation:                          
 ---------------------------------------------------------------------
 Center     Atomic      Atomic             Coordinates (Angstroms)
 Number     Number       Type             X           Y           Z
 ---------------------------------------------------------------------
      1          8           0       -2.424187    1.191110    0.000000
      2          8           0       -1.242494    0.819882    0.000000
      3          1           0        0.108603    0.752126    0.000000
      4          8           0        0.866523    0.094811    0.000000
      5          1           0        1.534741   -0.524487    0.000000
 ---------------------------------------------------------------------
                    Distance matrix (angstroms):
                    1          2          3          4          5
     1  O    0.000000
     2  O    1.238632   0.000000
     3  H    2.570551   1.352795   0.000000
     4  O    3.468522   2.230176   1.003248   0.000000
     5  H    4.314671   3.085509   1.914056   0.911068   0.000000
 Stoichiometry    H2O3
 Framework group  CS[SG(H2O3)]
 Deg. of freedom     7
 Full point group                 CS      NOp   2
 Largest Abelian subgroup         CS      NOp   2
 Largest concise Abelian subgroup C1      NOp   1
                         Standard orientation:                         
 ---------------------------------------------------------------------
 Center     Atomic      Atomic             Coordinates (Angstroms)
 Number     Number       Type             X           Y           Z
 ---------------------------------------------------------------------
      1          8           0       -0.059116    1.710365    0.000000
      2          8           0        0.000000    0.473145    0.000000
      3          1           0        0.402394   -0.818418    0.000000
      4          8           0        0.046818   -1.756539    0.000000
      5          1           0       -0.304012   -2.597350    0.000000
 ---------------------------------------------------------------------
 Rotational constants (GHZ):   1741.0374651      4.7221049      4.7093321
 Standard basis: 6-31+G(d,p) (6D, 7F)
 There are    50 symmetry adapted basis functions of A'  symmetry.
 There are    17 symmetry adapted basis functions of A"  symmetry.
 Integral buffers will be    262144 words long.
 Raffenetti 2 integral format.
 Two-electron integral symmetry is turned on.
    67 basis functions,   110 primitive gaussians,    67 cartesian basis functions
    13 alpha electrons       13 beta electrons
       nuclear repulsion energy        68.5650112006 Hartrees.
 NAtoms=    5 NActive=    5 NUniq=    5 SFac= 7.50D-01 NAtFMM=   80 NAOKFM=F Big=F
 One-electron integrals computed using PRISM.
 NBasis=    67 RedAO= T  NBF=    50    17
 NBsUse=    67 1.00D-06 NBFU=    50    17
 Initial guess read from the read-write file.
 B after Tr=     0.000000    0.000000    0.000000
         Rot=    1.000000    0.000000    0.000000    0.000000 Ang=   0.00 deg.
 Initial guess orbital symmetries:
       Occupied  (A') (A') (A') (A') (A') (A') (A') (A') (A") (A')
                 (A') (A") (A')
       Virtual   (A") (A') (A') (A') (A") (A') (A') (A') (A") (A')
                 (A') (A") (A') (A') (A') (A') (A') (A') (A") (A')
                 (A") (A') (A') (A') (A") (A') (A') (A") (A') (A")
                 (A') (A') (A") (A') (A') (A') (A") (A") (A') (A')
                 (A') (A") (A') (A') (A") (A') (A') (A") (A') (A')
                 (A') (A') (A') (A')
 Harris functional with IExCor= 1009 diagonalized for initial guess.
 ExpMin= 8.45D-02 ExpMax= 5.48D+03 ExpMxC= 8.25D+02 IAcc=2 IRadAn=         0 AccDes= 0.00D+00
 HarFok:  IExCor= 1009 AccDes= 0.00D+00 IRadAn=         0 IDoV= 1
 ScaDFX=  1.000000  1.000000  1.000000  1.000000
 FoFCou: FMM=F IPFlag=           0 FMFlag=      100000 FMFlg1=           0
         NFxFlg=           0 DoJE=T BraDBF=F KetDBF=T FulRan=T
         Omega=  0.000000  0.000000  1.000000  0.000000  0.000000 ICntrl=     500 IOpCl=  0
         NMat0=    1 NMatS0=    1 NMatT0=    0 NMatD0=    1 NMtDS0=    0 NMtDT0=    0
         I1Cent=           4 NGrid=           0.
 Petite list used in FoFCou.
 Requested convergence on RMS density matrix=1.00D-08 within 128 cycles.
 Requested convergence on MAX density matrix=1.00D-06.
 Requested convergence on             energy=1.00D-06.
 No special actions if energy rises.
 Keep R1 ints in memory in canonical form, NReq=3551244.
 Integral accuracy reduced to 1.0D-05 until final iterations.
 Initial convergence to 1.0D-05 achieved.  Increase integral accuracy.
 SCF Done:  E(RM062X) =  -226.524748842     A.U. after   17 cycles
             Convg  =    0.3209D-08             -V/T =  2.0080
 Calling FoFJK, ICntrl=      2127 FMM=F ISym2X=1 I1Cent= 0 IOpClX= 0 NMat=1 NMatS=1 NMatT=0.
 ***** Axes restored to original set *****
 -------------------------------------------------------------------
 Center     Atomic                   Forces (Hartrees/Bohr)
 Number     Number              X              Y              Z
 -------------------------------------------------------------------
      1        8           0.063542929   -0.009897194    0.000000000
      2        8          -0.114062839    0.013617598    0.000000000
      3        1           0.060372047   -0.028094361    0.000000000
      4        8          -0.041157666    0.051293034    0.000000000
      5        1           0.031305529   -0.026919077    0.000000000
 -------------------------------------------------------------------
 Cartesian Forces:  Max     0.114062839 RMS     0.043046570

 GradGradGradGradGradGradGradGradGradGradGradGradGradGradGradGradGradGrad
 Berny optimization.
 Internal  Forces:  Max     0.063587910 RMS     0.033357364
 Search for a saddle point.
 Step number   3 out of a maximum of  100
 All quantities printed in internal units (Hartrees-Bohrs-Radians)
 Swaping is turned off.
 Update second derivatives using D2CorX and points    1    2    3
 The second derivative matrix:
                          R1        R2        R3        R4        A1
           R1           0.39009
           R2           0.02071   0.12948
           R3           0.07966   0.11006   0.30463
           R4          -0.00758   0.00838  -0.01272   0.85167
           A1          -0.01195  -0.04819   0.00371   0.00065  -0.00137
           A2           0.01132   0.04336   0.03667   0.00343  -0.04072
           A3           0.00797   0.00804  -0.00074  -0.00274  -0.01040
           A4           0.00000   0.00000   0.00000   0.00000   0.00000
           D1           0.00000   0.00000   0.00000   0.00000   0.00000
                          A2        A3        A4        D1
           A2           0.10492
           A3           0.02113  -0.09052
           A4           0.00000   0.00000  -0.01434
           D1           0.00000   0.00000  -0.00048  -0.00400
     Eigenvalues ---   -0.09338  -0.02860  -0.01436  -0.00398   0.06308
     Eigenvalues ---    0.13436   0.29859   0.46262   0.85222
 Eigenvectors required to have negative eigenvalues:
                          A3        A2        A1        R3        R1
   1                    0.99339  -0.09268   0.06312   0.01583  -0.01475
                          R2        R4        D1        A4
   1                   -0.01073   0.00337   0.00000   0.00000
 RFO step:  Lambda0=9.697012634D-06 Lambda=-3.78301261D-02.
 Linear search not attempted -- option 19 set.
 Maximum step size (   0.300) exceeded in Quadratic search.
    -- Step size scaled by   0.290
 Iteration  1 RMS(Cart)=  0.06875833 RMS(Int)=  0.01453248
 Iteration  2 RMS(Cart)=  0.00593337 RMS(Int)=  0.00103143
 Iteration  3 RMS(Cart)=  0.00076484 RMS(Int)=  0.00000519
 Iteration  4 RMS(Cart)=  0.00000157 RMS(Int)=  0.00000000
 Iteration  5 RMS(Cart)=  0.00000000 RMS(Int)=  0.00000000
 ClnCor:  largest displacement from symmetrization is 3.18D-02 for atom     4.
 Variable       Old X    -DE/DX   Delta X   Delta X   Delta X     New X
                                 (Linear)    (Quad)   (Total)
    R1        2.34067  -0.06359   0.00000  -0.03451  -0.03455   2.30613
    R2        2.55641   0.05065   0.00000   0.17028   0.17027   2.72668
    R3        1.89586  -0.02342   0.00000  -0.07554  -0.07614   1.81972
    R4        1.72167   0.04126   0.00000   0.01009   0.00947   1.73114
    A1        2.88731  -0.02243   0.00000   0.15256   0.15260   3.03992
    A2        2.47727   0.02539   0.00000   0.06695   0.06757   2.54484
    A3        3.10860   0.00267   0.00000   0.00202   0.00331   3.11191
    A4        3.14159   0.00000   0.00000  -0.14142   0.00000   3.14159
    D1        3.14159   0.00000   0.00000  -0.07904   0.00000   3.14159
         Item               Value     Threshold  Converged?
 Maximum Force            0.063588     0.000450     NO 
 RMS     Force            0.033357     0.000300     NO 
 Maximum Displacement     0.141886     0.001800     NO 
 RMS     Displacement     0.072495     0.001200     NO 
 Predicted change in Energy=-1.071826D-02
 GradGradGradGradGradGradGradGradGradGradGradGradGradGradGradGradGradGrad

                          Input orientation:                          
 ---------------------------------------------------------------------
 Center     Atomic      Atomic             Coordinates (Angstroms)
 Number     Number       Type             X           Y           Z
 ---------------------------------------------------------------------
      1          8           0       -2.467605    1.164243    0.000000
      2          8           0       -1.277335    0.894965    0.000000
      3          1           0        0.155044    0.721072    0.000000
      4          8           0        0.880542    0.087877    0.000000
      5          1           0        1.552539   -0.534714    0.000000
 ---------------------------------------------------------------------
                    Distance matrix (angstroms):
                    1          2          3          4          5
     1  O    0.000000
     2  O    1.220349   0.000000
     3  H    2.659829   1.442896   0.000000
     4  O    3.516909   2.303871   0.962955   0.000000
     5  H    4.364403   3.170516   1.878827   0.916079   0.000000
 Stoichiometry    H2O3
 Framework group  CS[SG(H2O3)]
 Deg. of freedom     7
 Full point group                 CS      NOp   2
 Largest Abelian subgroup         CS      NOp   2
 Largest concise Abelian subgroup C1      NOp   1
                         Standard orientation:                         
 ---------------------------------------------------------------------
 Center     Atomic      Atomic             Coordinates (Angstroms)
 Number     Number       Type             X           Y           Z
 ---------------------------------------------------------------------
      1          8           0       -0.283883    1.701388    0.000000
      2          8           0        0.000000    0.514517    0.000000
      3          1           0        0.476358   -0.847479    0.000000
      4          8           0        0.228516   -1.777993    0.000000
      5          1           0       -0.033429   -2.655822    0.000000
 ---------------------------------------------------------------------
 Rotational constants (GHZ):   1245.9334953      4.5679886      4.5513020
 Standard basis: 6-31+G(d,p) (6D, 7F)
 There are    50 symmetry adapted basis functions of A'  symmetry.
 There are    17 symmetry adapted basis functions of A"  symmetry.
 Integral buffers will be    262144 words long.
 Raffenetti 2 integral format.
 Two-electron integral symmetry is turned on.
    67 basis functions,   110 primitive gaussians,    67 cartesian basis functions
    13 alpha electrons       13 beta electrons
       nuclear repulsion energy        68.2122095510 Hartrees.
 NAtoms=    5 NActive=    5 NUniq=    5 SFac= 7.50D-01 NAtFMM=   80 NAOKFM=F Big=F
 One-electron integrals computed using PRISM.
 NBasis=    67 RedAO= T  NBF=    50    17
 NBsUse=    67 1.00D-06 NBFU=    50    17
 Initial guess read from the read-write file.
 B after Tr=     0.000000    0.000000    0.000000
         Rot=    1.000000    0.000000    0.000000    0.000000 Ang=   0.00 deg.
 Initial guess orbital symmetries:
       Occupied  (A') (A') (A') (A') (A') (A') (A') (A') (A") (A')
                 (A') (A") (A')
       Virtual   (A") (A') (A') (A') (A") (A') (A') (A') (A") (A')
                 (A') (A") (A') (A') (A') (A') (A') (A') (A") (A')
                 (A') (A") (A') (A') (A") (A') (A') (A") (A') (A')
                 (A") (A') (A") (A') (A') (A') (A") (A') (A") (A')
                 (A") (A') (A') (A") (A') (A') (A') (A") (A') (A')
                 (A') (A') (A') (A')
 Harris functional with IExCor= 1009 diagonalized for initial guess.
 ExpMin= 8.45D-02 ExpMax= 5.48D+03 ExpMxC= 8.25D+02 IAcc=2 IRadAn=         0 AccDes= 0.00D+00
 HarFok:  IExCor= 1009 AccDes= 0.00D+00 IRadAn=         0 IDoV= 1
 ScaDFX=  1.000000  1.000000  1.000000  1.000000
 FoFCou: FMM=F IPFlag=           0 FMFlag=      100000 FMFlg1=           0
         NFxFlg=           0 DoJE=T BraDBF=F KetDBF=T FulRan=T
         Omega=  0.000000  0.000000  1.000000  0.000000  0.000000 ICntrl=     500 IOpCl=  0
         NMat0=    1 NMatS0=    1 NMatT0=    0 NMatD0=    1 NMtDS0=    0 NMtDT0=    0
         I1Cent=           4 NGrid=           0.
 Petite list used in FoFCou.
 Requested convergence on RMS density matrix=1.00D-08 within 128 cycles.
 Requested convergence on MAX density matrix=1.00D-06.
 Requested convergence on             energy=1.00D-06.
 No special actions if energy rises.
 Keep R1 ints in memory in canonical form, NReq=3551244.
 Integral accuracy reduced to 1.0D-05 until final iterations.
 Initial convergence to 1.0D-05 achieved.  Increase integral accuracy.
 SCF Done:  E(RM062X) =  -226.534576221     A.U. after   16 cycles
             Convg  =    0.6551D-08             -V/T =  2.0077
 Calling FoFJK, ICntrl=      2127 FMM=F ISym2X=1 I1Cent= 0 IOpClX= 0 NMat=1 NMatS=1 NMatT=0.
 ***** Axes restored to original set *****
 -------------------------------------------------------------------
 Center     Atomic                   Forces (Hartrees/Bohr)
 Number     Number              X              Y              Z
 -------------------------------------------------------------------
      1        8           0.040329791   -0.003124966    0.000000000
      2        8          -0.081821968    0.010439144    0.000000000
      3        1           0.036389137   -0.015890458    0.000000000
      4        8          -0.018583368    0.029104584    0.000000000
      5        1           0.023686408   -0.020528305    0.000000000
 -------------------------------------------------------------------
 Cartesian Forces:  Max     0.081821968 RMS     0.028509202

 GradGradGradGradGradGradGradGradGradGradGradGradGradGradGradGradGradGrad
 Berny optimization.
 Internal  Forces:  Max     0.042071039 RMS     0.023401058
 Search for a saddle point.
 Step number   4 out of a maximum of  100
 All quantities printed in internal units (Hartrees-Bohrs-Radians)
 Swaping is turned off.
 Update second derivatives using D2CorX and points    2    3    4
 The second derivative matrix:
                          R1        R2        R3        R4        A1
           R1           0.40070
           R2           0.00963   0.11828
           R3           0.10721   0.07924   0.37591
           R4          -0.00682   0.00538  -0.01095   0.85151
           A1          -0.02346  -0.05235  -0.02765  -0.00173  -0.00067
           A2           0.00627   0.04021   0.02280   0.00226  -0.04125
           A3           0.00750   0.00828  -0.00198  -0.00280  -0.01008
           A4           0.00000   0.00000   0.00000   0.00000   0.00000
           D1           0.00000   0.00000   0.00000   0.00000   0.00000
                          A2        A3        A4        D1
           A2           0.10420
           A3           0.02126  -0.09051
           A4           0.00000   0.00000  -0.01434
           D1           0.00000   0.00000  -0.00048  -0.00400
     Eigenvalues ---   -0.09338  -0.02645  -0.01436  -0.00398   0.06617
     Eigenvalues ---    0.15094   0.29852   0.51165   0.85199
 Eigenvectors required to have negative eigenvalues:
                          A3        A2        A1        R3        R1
   1                    0.99341  -0.09326   0.06133   0.01778  -0.01457
                          R2        R4        D1        A4
   1                   -0.01207   0.00345   0.00000   0.00000
 RFO step:  Lambda0=5.606466843D-06 Lambda=-2.68009089D-02.
 Linear search not attempted -- option 19 set.
 Maximum step size (   0.300) exceeded in Quadratic search.
    -- Step size scaled by   0.305
 New curvilinear step failed, DQL= 3.14D+00 SP=-2.19D-01.
 New curvilinear step failed, DQL= 3.15D+00 SP=-2.21D-01.
 Iteration  1 RMS(Cart)=  0.00685163 RMS(Int)=  0.07194450
 Iteration  2 RMS(Cart)=  0.00135202 RMS(Int)=  0.07035693
 Iteration  3 RMS(Cart)=  0.00128489 RMS(Int)=  0.06884682
 Iteration  4 RMS(Cart)=  0.00122301 RMS(Int)=  0.06740824
 New curvilinear step failed, DQL= 3.14D+00 SP=-2.33D-01.
 Iteration  1 RMS(Cart)=  0.00599518 RMS(Int)=  0.06295816
 Iteration  2 RMS(Cart)=  0.00104453 RMS(Int)=  0.06173269
 Iteration  3 RMS(Cart)=  0.00099896 RMS(Int)=  0.06055986
 Iteration  4 RMS(Cart)=  0.00095654 RMS(Int)=  0.05943610
 Iteration  5 RMS(Cart)=  0.00091696 RMS(Int)=  0.05835815
 Iteration  6 RMS(Cart)=  0.00087997 RMS(Int)=  0.05732306
 Iteration  7 RMS(Cart)=  0.00084532 RMS(Int)=  0.05632814
 Iteration  8 RMS(Cart)=  0.00081283 RMS(Int)=  0.05537093
 Iteration  9 RMS(Cart)=  0.00078229 RMS(Int)=  0.05444918
 Iteration 10 RMS(Cart)=  0.00075356 RMS(Int)=  0.05356083
 Iteration 11 RMS(Cart)=  0.00072649 RMS(Int)=  0.05270397
 Iteration 12 RMS(Cart)=  0.00070094 RMS(Int)=  0.05187685
 Iteration 13 RMS(Cart)=  0.00067679 RMS(Int)=  0.05107784
 Iteration 14 RMS(Cart)=  0.00065395 RMS(Int)=  0.05030546
 Iteration 15 RMS(Cart)=  0.00063232 RMS(Int)=  0.04955830
 Iteration 16 RMS(Cart)=  0.00061180 RMS(Int)=  0.04883509
 Iteration 17 RMS(Cart)=  0.00059232 RMS(Int)=  0.04813461
 Iteration 18 RMS(Cart)=  0.00057381 RMS(Int)=  0.04745576
 Iteration 19 RMS(Cart)=  0.00055621 RMS(Int)=  0.04679749
 Iteration 20 RMS(Cart)=  0.00053944 RMS(Int)=  0.04615883
 Iteration 21 RMS(Cart)=  0.00052346 RMS(Int)=  0.04553886
 Iteration 22 RMS(Cart)=  0.00050822 RMS(Int)=  0.04493673
 Iteration 23 RMS(Cart)=  0.00049367 RMS(Int)=  0.04435164
 Iteration 24 RMS(Cart)=  0.00047977 RMS(Int)=  0.04378285
 Iteration 25 RMS(Cart)=  0.00046648 RMS(Int)=  0.04322964
 New curvilinear step failed, DQL= 3.14D+00 SP=-2.47D-01.
 Iteration  1 RMS(Cart)=  0.00513872 RMS(Int)=  0.05396971
 Iteration  2 RMS(Cart)=  0.00079846 RMS(Int)=  0.05303367
 Iteration  3 RMS(Cart)=  0.00076649 RMS(Int)=  0.05213462
 Iteration  4 RMS(Cart)=  0.00073662 RMS(Int)=  0.05127017
 Iteration  5 RMS(Cart)=  0.00070866 RMS(Int)=  0.05043813
 Iteration  6 RMS(Cart)=  0.00068242 RMS(Int)=  0.04963652
 Iteration  7 RMS(Cart)=  0.00065775 RMS(Int)=  0.04886353
 Iteration  8 RMS(Cart)=  0.00063454 RMS(Int)=  0.04811750
 Iteration  9 RMS(Cart)=  0.00061264 RMS(Int)=  0.04739691
 Iteration 10 RMS(Cart)=  0.00059197 RMS(Int)=  0.04670034
 Iteration 11 RMS(Cart)=  0.00057242 RMS(Int)=  0.04602651
 Iteration 12 RMS(Cart)=  0.00055391 RMS(Int)=  0.04537422
 Iteration 13 RMS(Cart)=  0.00053636 RMS(Int)=  0.04474237
 Iteration 14 RMS(Cart)=  0.00051971 RMS(Int)=  0.04412992
 Iteration 15 RMS(Cart)=  0.00050388 RMS(Int)=  0.04353591
 Iteration 16 RMS(Cart)=  0.00048882 RMS(Int)=  0.04295947
 Iteration 17 RMS(Cart)=  0.00047448 RMS(Int)=  0.04239976
 Iteration 18 RMS(Cart)=  0.00046081 RMS(Int)=  0.04185600
 Iteration 19 RMS(Cart)=  0.00044776 RMS(Int)=  0.04132747
 Iteration 20 RMS(Cart)=  0.00043531 RMS(Int)=  0.04081349
 Iteration 21 RMS(Cart)=  0.00042340 RMS(Int)=  0.04031342
 Iteration 22 RMS(Cart)=  0.00041201 RMS(Int)=  0.03982667
 Iteration 23 RMS(Cart)=  0.00040111 RMS(Int)=  0.03935267
 Iteration 24 RMS(Cart)=  0.00039066 RMS(Int)=  0.03889089
 Iteration 25 RMS(Cart)=  0.00038064 RMS(Int)=  0.03844084
 Iteration 26 RMS(Cart)=  0.00037103 RMS(Int)=  0.03800204
 Iteration 27 RMS(Cart)=  0.00036180 RMS(Int)=  0.03757405
 Iteration 28 RMS(Cart)=  0.00035293 RMS(Int)=  0.03715645
 Iteration 29 RMS(Cart)=  0.00034441 RMS(Int)=  0.03674884
 Iteration 30 RMS(Cart)=  0.00033621 RMS(Int)=  0.03635084
 Iteration 31 RMS(Cart)=  0.00032832 RMS(Int)=  0.03596210
 Iteration 32 RMS(Cart)=  0.00032071 RMS(Int)=  0.03558228
 Iteration 33 RMS(Cart)=  0.00031339 RMS(Int)=  0.03521106
 Iteration 34 RMS(Cart)=  0.00030632 RMS(Int)=  0.03484813
 Iteration 35 RMS(Cart)=  0.00029951 RMS(Int)=  0.03449320
 Iteration 36 RMS(Cart)=  0.00029293 RMS(Int)=  0.03414599
 Iteration 37 RMS(Cart)=  0.00028658 RMS(Int)=  0.03380624
 Iteration 38 RMS(Cart)=  0.00028045 RMS(Int)=  0.03347371
 Iteration 39 RMS(Cart)=  0.00027452 RMS(Int)=  0.03314814
 Iteration 40 RMS(Cart)=  0.00026878 RMS(Int)=  0.03282931
 Iteration 41 RMS(Cart)=  0.00026324 RMS(Int)=  0.03251701
 Iteration 42 RMS(Cart)=  0.00025787 RMS(Int)=  0.03221102
 Iteration 43 RMS(Cart)=  0.00025267 RMS(Int)=  0.03191115
 Iteration 44 RMS(Cart)=  0.00024764 RMS(Int)=  0.03161721
 Iteration 45 RMS(Cart)=  0.00024276 RMS(Int)=  0.03132900
 Iteration 46 RMS(Cart)=  0.00023803 RMS(Int)=  0.03104637
 Iteration 47 RMS(Cart)=  0.00023345 RMS(Int)=  0.03076913
 Iteration 48 RMS(Cart)=  0.00022900 RMS(Int)=  0.03049713
 Iteration 49 RMS(Cart)=  0.00022469 RMS(Int)=  0.03023022
 Iteration 50 RMS(Cart)=  0.00022050 RMS(Int)=  0.02996824
 Iteration 51 RMS(Cart)=  0.00021643 RMS(Int)=  0.02971106
 Iteration 52 RMS(Cart)=  0.00021248 RMS(Int)=  0.02945854
 Iteration 53 RMS(Cart)=  0.00020864 RMS(Int)=  0.02921055
 Iteration 54 RMS(Cart)=  0.00020491 RMS(Int)=  0.02896696
 Iteration 55 RMS(Cart)=  0.00020128 RMS(Int)=  0.02872764
 Iteration 56 RMS(Cart)=  0.00019775 RMS(Int)=  0.02849250
 Iteration 57 RMS(Cart)=  0.00019432 RMS(Int)=  0.02826140
 Iteration 58 RMS(Cart)=  0.00019098 RMS(Int)=  0.02803424
 Iteration 59 RMS(Cart)=  0.00018773 RMS(Int)=  0.02781093
 Iteration 60 RMS(Cart)=  0.00018456 RMS(Int)=  0.02759135
 Iteration 61 RMS(Cart)=  0.00018148 RMS(Int)=  0.02737542
 Iteration 62 RMS(Cart)=  0.00017848 RMS(Int)=  0.02716303
 Iteration 63 RMS(Cart)=  0.00017555 RMS(Int)=  0.02695410
 Iteration 64 RMS(Cart)=  0.00017270 RMS(Int)=  0.02674854
 Iteration 65 RMS(Cart)=  0.00016992 RMS(Int)=  0.02654627
 Iteration 66 RMS(Cart)=  0.00016721 RMS(Int)=  0.02634720
 Iteration 67 RMS(Cart)=  0.00016456 RMS(Int)=  0.02615126
 Iteration 68 RMS(Cart)=  0.00016198 RMS(Int)=  0.02595837
 Iteration 69 RMS(Cart)=  0.00015946 RMS(Int)=  0.02576845
 Iteration 70 RMS(Cart)=  0.00015701 RMS(Int)=  0.02558145
 Iteration 71 RMS(Cart)=  0.00015461 RMS(Int)=  0.02539728
 Iteration 72 RMS(Cart)=  0.00015227 RMS(Int)=  0.02521588
 Iteration 73 RMS(Cart)=  0.00014998 RMS(Int)=  0.02503719
 Iteration 74 RMS(Cart)=  0.00014774 RMS(Int)=  0.02486115
 Iteration 75 RMS(Cart)=  0.00014556 RMS(Int)=  0.02468769
 Iteration 76 RMS(Cart)=  0.00014343 RMS(Int)=  0.02451675
 Iteration 77 RMS(Cart)=  0.00014134 RMS(Int)=  0.02434828
 Iteration 78 RMS(Cart)=  0.00013930 RMS(Int)=  0.02418223
 Iteration 79 RMS(Cart)=  0.00013731 RMS(Int)=  0.02401854
 Iteration 80 RMS(Cart)=  0.00013536 RMS(Int)=  0.02385716
 Iteration 81 RMS(Cart)=  0.00013345 RMS(Int)=  0.02369804
 Iteration 82 RMS(Cart)=  0.00013159 RMS(Int)=  0.02354112
 Iteration 83 RMS(Cart)=  0.00012976 RMS(Int)=  0.02338637
 Iteration 84 RMS(Cart)=  0.00012798 RMS(Int)=  0.02323374
 Iteration 85 RMS(Cart)=  0.00012623 RMS(Int)=  0.02308318
 Iteration 86 RMS(Cart)=  0.00012452 RMS(Int)=  0.02293465
 Iteration 87 RMS(Cart)=  0.00012284 RMS(Int)=  0.02278811
 Iteration 88 RMS(Cart)=  0.00012120 RMS(Int)=  0.02264351
 Iteration 89 RMS(Cart)=  0.00011959 RMS(Int)=  0.02250082
 Iteration 90 RMS(Cart)=  0.00011802 RMS(Int)=  0.02236000
 Iteration 91 RMS(Cart)=  0.00011647 RMS(Int)=  0.02222101
 Iteration 92 RMS(Cart)=  0.00011496 RMS(Int)=  0.02208381
 Iteration 93 RMS(Cart)=  0.00011348 RMS(Int)=  0.02194837
 Iteration 94 RMS(Cart)=  0.00011203 RMS(Int)=  0.02181465
 Iteration 95 RMS(Cart)=  0.00011060 RMS(Int)=  0.02168263
 Iteration 96 RMS(Cart)=  0.00010921 RMS(Int)=  0.02155226
 Iteration 97 RMS(Cart)=  0.00010784 RMS(Int)=  0.02142352
 Iteration 98 RMS(Cart)=  0.00010649 RMS(Int)=  0.02129637
 Iteration 99 RMS(Cart)=  0.00010518 RMS(Int)=  0.02117078
 Iteration100 RMS(Cart)=  0.00010388 RMS(Int)=  0.02104673
 New curvilinear step not converged.
 Iteration  1 RMS(Cart)=  0.01964929 RMS(Int)=  0.02650425
 Iteration  2 RMS(Cart)=  0.02127247 RMS(Int)=  0.00306968
 Iteration  3 RMS(Cart)=  0.00100311 RMS(Int)=  0.00043550
 Iteration  4 RMS(Cart)=  0.00035027 RMS(Int)=  0.00001676
 Iteration  5 RMS(Cart)=  0.00000395 RMS(Int)=  0.00000001
 Iteration  6 RMS(Cart)=  0.00000000 RMS(Int)=  0.00000000
 ClnCor:  largest displacement from symmetrization is 1.60D-02 for atom     4.
 Variable       Old X    -DE/DX   Delta X   Delta X   Delta X     New X
                                 (Linear)    (Quad)   (Total)
    R1        2.30613  -0.04003   0.00000  -0.01843  -0.00922   2.29691
    R2        2.72668   0.04207   0.00000   0.14712   0.07356   2.80024
    R3        1.81972  -0.00179   0.00000  -0.01584  -0.00807   1.81165
    R4        1.73114   0.03133   0.00000   0.00983   0.00475   1.73589
    A1        3.03992  -0.01349   0.00000   0.18642   0.09321   3.13313
    A2        2.54484   0.01966   0.00000   0.06223   0.03129   2.57612
    A3        3.11191   0.00180   0.00000  -0.00152  -0.00044   3.11147
    A4        3.14159   0.00000   0.00000  -0.14875   0.00000   3.14159
    D1        3.14159   0.00000   0.00000  -0.08314   0.00000   3.14159
         Item               Value     Threshold  Converged?
 Maximum Force            0.042071     0.000450     NO 
 RMS     Force            0.023401     0.000300     NO 
 Maximum Displacement     0.091687     0.001800     NO 
 RMS     Displacement     0.041683     0.001200     NO 
 Predicted change in Energy=-2.973414D-03
 GradGradGradGradGradGradGradGradGradGradGradGradGradGradGradGradGradGrad

                          Input orientation:                          
 ---------------------------------------------------------------------
 Center     Atomic      Atomic             Coordinates (Angstroms)
 Number     Number       Type             X           Y           Z
 ---------------------------------------------------------------------
      1          8           0       -2.491235    1.142184    0.000000
      2          8           0       -1.292116    0.943484    0.000000
      3          1           0        0.171769    0.713623    0.000000
      4          8           0        0.891742    0.080603    0.000000
      5          1           0        1.563025   -0.546450    0.000000
 ---------------------------------------------------------------------
                    Distance matrix (angstroms):
                    1          2          3          4          5
     1  O    0.000000
     2  O    1.215470   0.000000
     3  H    2.697268   1.481822   0.000000
     4  O    3.545629   2.348148   0.958685   0.000000
     5  H    4.391868   3.220517   1.877066   0.918594   0.000000
 Stoichiometry    H2O3
 Framework group  CS[SG(H2O3)]
 Deg. of freedom     7
 Full point group                 CS      NOp   2
 Largest Abelian subgroup         CS      NOp   2
 Largest concise Abelian subgroup C1      NOp   1
                         Standard orientation:                         
 ---------------------------------------------------------------------
 Center     Atomic      Atomic             Coordinates (Angstroms)
 Number     Number       Type             X           Y           Z
 ---------------------------------------------------------------------
      1          8           0        0.426874    1.679564    0.000000
      2          8           0        0.000000    0.541519    0.000000
      3          1           0       -0.532141   -0.841457    0.000000
      4          8           0       -0.343414   -1.781382    0.000000
      5          1           0       -0.135535   -2.676145    0.000000
 ---------------------------------------------------------------------
 Rotational constants (GHZ):    854.9422735      4.4818588      4.4584861
 Standard basis: 6-31+G(d,p) (6D, 7F)
 There are    50 symmetry adapted basis functions of A'  symmetry.
 There are    17 symmetry adapted basis functions of A"  symmetry.
 Integral buffers will be    262144 words long.
 Raffenetti 2 integral format.
 Two-electron integral symmetry is turned on.
    67 basis functions,   110 primitive gaussians,    67 cartesian basis functions
    13 alpha electrons       13 beta electrons
       nuclear repulsion energy        67.8496507760 Hartrees.
 NAtoms=    5 NActive=    5 NUniq=    5 SFac= 7.50D-01 NAtFMM=   80 NAOKFM=F Big=F
 One-electron integrals computed using PRISM.
 NBasis=    67 RedAO= T  NBF=    50    17
 NBsUse=    67 1.00D-06 NBFU=    50    17
 Initial guess read from the read-write file.
 B after Tr=     0.000000    0.000000    0.000000
         Rot=    1.000000    0.000000    0.000000    0.000000 Ang=   0.00 deg.
 Initial guess orbital symmetries:
       Occupied  (A') (A') (A') (A') (A') (A') (A') (A') (A") (A')
                 (A') (A") (A')
       Virtual   (A") (A') (A') (A') (A") (A') (A') (A") (A') (A')
                 (A") (A') (A') (A') (A') (A') (A') (A') (A") (A')
                 (A') (A") (A') (A') (A") (A') (A') (A") (A') (A')
                 (A") (A") (A') (A') (A') (A') (A") (A') (A') (A")
                 (A") (A') (A') (A") (A') (A') (A') (A") (A') (A')
                 (A') (A') (A') (A')
 Harris functional with IExCor= 1009 diagonalized for initial guess.
 ExpMin= 8.45D-02 ExpMax= 5.48D+03 ExpMxC= 8.25D+02 IAcc=2 IRadAn=         0 AccDes= 0.00D+00
 HarFok:  IExCor= 1009 AccDes= 0.00D+00 IRadAn=         0 IDoV= 1
 ScaDFX=  1.000000  1.000000  1.000000  1.000000
 FoFCou: FMM=F IPFlag=           0 FMFlag=      100000 FMFlg1=           0
         NFxFlg=           0 DoJE=T BraDBF=F KetDBF=T FulRan=T
         Omega=  0.000000  0.000000  1.000000  0.000000  0.000000 ICntrl=     500 IOpCl=  0
         NMat0=    1 NMatS0=    1 NMatT0=    0 NMatD0=    1 NMtDS0=    0 NMtDT0=    0
         I1Cent=           4 NGrid=           0.
 Petite list used in FoFCou.
 Requested convergence on RMS density matrix=1.00D-08 within 128 cycles.
 Requested convergence on MAX density matrix=1.00D-06.
 Requested convergence on             energy=1.00D-06.
 No special actions if energy rises.
 Keep R1 ints in memory in canonical form, NReq=3551244.
 Integral accuracy reduced to 1.0D-05 until final iterations.
 Initial convergence to 1.0D-05 achieved.  Increase integral accuracy.
 SCF Done:  E(RM062X) =  -226.538535499     A.U. after   18 cycles
             Convg  =    0.4468D-08             -V/T =  2.0078
 Calling FoFJK, ICntrl=      2127 FMM=F ISym2X=1 I1Cent= 0 IOpClX= 0 NMat=1 NMatS=1 NMatT=0.
 ***** Axes restored to original set *****
 -------------------------------------------------------------------
 Center     Atomic                   Forces (Hartrees/Bohr)
 Number     Number              X              Y              Z
 -------------------------------------------------------------------
      1        8           0.031761664   -0.007663419    0.000000000
      2        8          -0.065274840    0.019769064    0.000000000
      3        1           0.031246715   -0.017877847    0.000000000
      4        8          -0.018888980    0.023431955    0.000000000
      5        1           0.021155440   -0.017659753    0.000000000
 -------------------------------------------------------------------
 Cartesian Forces:  Max     0.065274840 RMS     0.024056040

 GradGradGradGradGradGradGradGradGradGradGradGradGradGradGradGradGradGrad
 Berny optimization.
 Internal  Forces:  Max     0.034992078 RMS     0.019039788
 Search for a saddle point.
 Step number   5 out of a maximum of  100
 All quantities printed in internal units (Hartrees-Bohrs-Radians)
 Swaping is turned off.
 Update second derivatives using D2CorX and points    3    4    5
 The second derivative matrix:
                          R1        R2        R3        R4        A1
           R1           0.40221
           R2           0.00055   0.15570
           R3           0.10888   0.07485   0.37616
           R4          -0.00725   0.00505  -0.01050   0.85114
           A1          -0.03132  -0.06257  -0.01790  -0.00921  -0.15159
           A2           0.00199   0.06538   0.01839   0.00337  -0.02101
           A3           0.00769   0.00453  -0.00097  -0.00330  -0.01980
           A4           0.00000   0.00000   0.00000   0.00000   0.00000
           D1           0.00000   0.00000   0.00000   0.00000   0.00000
                          A2        A3        A4        D1
           A2           0.11636
           A3           0.02062  -0.09088
           A4           0.00000   0.00000  -0.01434
           D1           0.00000   0.00000  -0.00048  -0.00400
     Eigenvalues ---   -0.16981  -0.08925  -0.01436  -0.00398   0.06691
     Eigenvalues ---    0.18285   0.30597   0.51075   0.85170
 Eigenvectors required to have negative eigenvalues:
                          A1        A3        R2        R1        A2
   1                    0.95713   0.22185   0.17871   0.04988   0.01319
                          R4        R3        D1        A4
   1                    0.00875  -0.00295   0.00000   0.00000
 RFO step:  Lambda0=6.983824222D-04 Lambda=-8.92544964D-02.
 Linear search not attempted -- option 19 set.
 Maximum step size (   0.300) exceeded in Quadratic search.
    -- Step size scaled by   0.316
 New curvilinear step failed, DQL= 3.11D+00 SP=-2.40D-01.
 New curvilinear step failed, DQL= 3.12D+00 SP=-2.24D-01.
 New curvilinear step failed, DQL= 3.13D+00 SP=-2.21D-01.
 New curvilinear step failed, DQL= 3.13D+00 SP=-2.29D-01.
 New curvilinear step failed, DQL= 3.14D+00 SP=-2.37D-01.
 Iteration  1 RMS(Cart)=  0.00425864 RMS(Int)=  0.04499318
 Iteration  2 RMS(Cart)=  0.00053193 RMS(Int)=  0.04436907
 Iteration  3 RMS(Cart)=  0.00051631 RMS(Int)=  0.04376334
 Iteration  4 RMS(Cart)=  0.00050141 RMS(Int)=  0.04317513
 New curvilinear step failed, DQL= 3.14D+00 SP=-2.48D-01.
 Iteration  1 RMS(Cart)=  0.00340691 RMS(Int)=  0.03599627
 Iteration  2 RMS(Cart)=  0.00033845 RMS(Int)=  0.03559913
 Iteration  3 RMS(Cart)=  0.00033049 RMS(Int)=  0.03521134
 Iteration  4 RMS(Cart)=  0.00032282 RMS(Int)=  0.03483257
 Iteration  5 RMS(Cart)=  0.00031544 RMS(Int)=  0.03446248
 Iteration  6 RMS(Cart)=  0.00030832 RMS(Int)=  0.03410076
 Iteration  7 RMS(Cart)=  0.00030145 RMS(Int)=  0.03374711
 Iteration  8 RMS(Cart)=  0.00029482 RMS(Int)=  0.03340126
 Iteration  9 RMS(Cart)=  0.00028841 RMS(Int)=  0.03306293
 Iteration 10 RMS(Cart)=  0.00028223 RMS(Int)=  0.03273187
 Iteration 11 RMS(Cart)=  0.00027625 RMS(Int)=  0.03240783
 Iteration 12 RMS(Cart)=  0.00027047 RMS(Int)=  0.03209059
 Iteration 13 RMS(Cart)=  0.00026488 RMS(Int)=  0.03177991
 Iteration 14 RMS(Cart)=  0.00025947 RMS(Int)=  0.03147560
 Iteration 15 RMS(Cart)=  0.00025423 RMS(Int)=  0.03117743
 Iteration 16 RMS(Cart)=  0.00024916 RMS(Int)=  0.03088524
 Iteration 17 RMS(Cart)=  0.00024424 RMS(Int)=  0.03059882
 Iteration 18 RMS(Cart)=  0.00023947 RMS(Int)=  0.03031800
 Iteration 19 RMS(Cart)=  0.00023485 RMS(Int)=  0.03004260
 Iteration 20 RMS(Cart)=  0.00023037 RMS(Int)=  0.02977247
 Iteration 21 RMS(Cart)=  0.00022602 RMS(Int)=  0.02950745
 Iteration 22 RMS(Cart)=  0.00022180 RMS(Int)=  0.02924739
 Iteration 23 RMS(Cart)=  0.00021770 RMS(Int)=  0.02899215
 Iteration 24 RMS(Cart)=  0.00021372 RMS(Int)=  0.02874158
 Iteration 25 RMS(Cart)=  0.00020985 RMS(Int)=  0.02849555
 Iteration 26 RMS(Cart)=  0.00020609 RMS(Int)=  0.02825394
 Iteration 27 RMS(Cart)=  0.00020243 RMS(Int)=  0.02801663
 Iteration 28 RMS(Cart)=  0.00019888 RMS(Int)=  0.02778349
 Iteration 29 RMS(Cart)=  0.00019542 RMS(Int)=  0.02755441
 Iteration 30 RMS(Cart)=  0.00019205 RMS(Int)=  0.02732928
 Iteration 31 RMS(Cart)=  0.00018878 RMS(Int)=  0.02710800
 Iteration 32 RMS(Cart)=  0.00018559 RMS(Int)=  0.02689047
 Iteration 33 RMS(Cart)=  0.00018248 RMS(Int)=  0.02667658
 Iteration 34 RMS(Cart)=  0.00017945 RMS(Int)=  0.02646625
 Iteration 35 RMS(Cart)=  0.00017651 RMS(Int)=  0.02625938
 Iteration 36 RMS(Cart)=  0.00017363 RMS(Int)=  0.02605588
 Iteration 37 RMS(Cart)=  0.00017083 RMS(Int)=  0.02585567
 Iteration 38 RMS(Cart)=  0.00016810 RMS(Int)=  0.02565867
 Iteration 39 RMS(Cart)=  0.00016543 RMS(Int)=  0.02546480
 Iteration 40 RMS(Cart)=  0.00016283 RMS(Int)=  0.02527398
 Iteration 41 RMS(Cart)=  0.00016030 RMS(Int)=  0.02508613
 Iteration 42 RMS(Cart)=  0.00015782 RMS(Int)=  0.02490120
 Iteration 43 RMS(Cart)=  0.00015540 RMS(Int)=  0.02471909
 Iteration 44 RMS(Cart)=  0.00015304 RMS(Int)=  0.02453976
 Iteration 45 RMS(Cart)=  0.00015074 RMS(Int)=  0.02436313
 Iteration 46 RMS(Cart)=  0.00014849 RMS(Int)=  0.02418915
 Iteration 47 RMS(Cart)=  0.00014629 RMS(Int)=  0.02401774
 Iteration 48 RMS(Cart)=  0.00014414 RMS(Int)=  0.02384886
 Iteration 49 RMS(Cart)=  0.00014204 RMS(Int)=  0.02368244
 Iteration 50 RMS(Cart)=  0.00013999 RMS(Int)=  0.02351844
 Iteration 51 RMS(Cart)=  0.00013798 RMS(Int)=  0.02335679
 Iteration 52 RMS(Cart)=  0.00013601 RMS(Int)=  0.02319744
 Iteration 53 RMS(Cart)=  0.00013409 RMS(Int)=  0.02304035
 Iteration 54 RMS(Cart)=  0.00013221 RMS(Int)=  0.02288546
 Iteration 55 RMS(Cart)=  0.00013037 RMS(Int)=  0.02273273
 Iteration 56 RMS(Cart)=  0.00012857 RMS(Int)=  0.02258211
 Iteration 57 RMS(Cart)=  0.00012681 RMS(Int)=  0.02243356
 Iteration 58 RMS(Cart)=  0.00012509 RMS(Int)=  0.02228703
 Iteration 59 RMS(Cart)=  0.00012340 RMS(Int)=  0.02214248
 Iteration 60 RMS(Cart)=  0.00012175 RMS(Int)=  0.02199988
 Iteration 61 RMS(Cart)=  0.00012013 RMS(Int)=  0.02185917
 Iteration 62 RMS(Cart)=  0.00011854 RMS(Int)=  0.02172032
 Iteration 63 RMS(Cart)=  0.00011699 RMS(Int)=  0.02158330
 Iteration 64 RMS(Cart)=  0.00011546 RMS(Int)=  0.02144806
 Iteration 65 RMS(Cart)=  0.00011397 RMS(Int)=  0.02131457
 Iteration 66 RMS(Cart)=  0.00011251 RMS(Int)=  0.02118280
 Iteration 67 RMS(Cart)=  0.00011107 RMS(Int)=  0.02105271
 Iteration 68 RMS(Cart)=  0.00010967 RMS(Int)=  0.02092427
 Iteration 69 RMS(Cart)=  0.00010829 RMS(Int)=  0.02079745
 Iteration 70 RMS(Cart)=  0.00010693 RMS(Int)=  0.02067222
 Iteration 71 RMS(Cart)=  0.00010561 RMS(Int)=  0.02054854
 Iteration 72 RMS(Cart)=  0.00010431 RMS(Int)=  0.02042639
 Iteration 73 RMS(Cart)=  0.00010303 RMS(Int)=  0.02030573
 Iteration 74 RMS(Cart)=  0.00010178 RMS(Int)=  0.02018655
 Iteration 75 RMS(Cart)=  0.00010055 RMS(Int)=  0.02006880
 Iteration 76 RMS(Cart)=  0.00009934 RMS(Int)=  0.01995248
 Iteration 77 RMS(Cart)=  0.00009815 RMS(Int)=  0.01983754
 Iteration 78 RMS(Cart)=  0.00009699 RMS(Int)=  0.01972396
 Iteration 79 RMS(Cart)=  0.00009585 RMS(Int)=  0.01961173
 Iteration 80 RMS(Cart)=  0.00009473 RMS(Int)=  0.01950081
 Iteration 81 RMS(Cart)=  0.00009363 RMS(Int)=  0.01939118
 Iteration 82 RMS(Cart)=  0.00009254 RMS(Int)=  0.01928282
 Iteration 83 RMS(Cart)=  0.00009148 RMS(Int)=  0.01917571
 Iteration 84 RMS(Cart)=  0.00009044 RMS(Int)=  0.01906982
 Iteration 85 RMS(Cart)=  0.00008941 RMS(Int)=  0.01896513
 Iteration 86 RMS(Cart)=  0.00008840 RMS(Int)=  0.01886163
 Iteration 87 RMS(Cart)=  0.00008741 RMS(Int)=  0.01875929
 Iteration 88 RMS(Cart)=  0.00008644 RMS(Int)=  0.01865809
 Iteration 89 RMS(Cart)=  0.00008548 RMS(Int)=  0.01855801
 Iteration 90 RMS(Cart)=  0.00008454 RMS(Int)=  0.01845903
 Iteration 91 RMS(Cart)=  0.00008361 RMS(Int)=  0.01836114
 Iteration 92 RMS(Cart)=  0.00008270 RMS(Int)=  0.01826432
 Iteration 93 RMS(Cart)=  0.00008181 RMS(Int)=  0.01816854
 New curvilinear step failed, DQL= 3.14D+00 SP=-2.69D-01.
 Iteration  1 RMS(Cart)=  0.01536192 RMS(Int)=  0.01180563
 Iteration  2 RMS(Cart)=  0.00972109 RMS(Int)=  0.00297856
 Iteration  3 RMS(Cart)=  0.00050432 RMS(Int)=  0.00007552
 Iteration  4 RMS(Cart)=  0.00005494 RMS(Int)=  0.00000007
 Iteration  5 RMS(Cart)=  0.00000000 RMS(Int)=  0.00000000
 ClnCor:  largest displacement from symmetrization is 1.09D-02 for atom     4.
 Variable       Old X    -DE/DX   Delta X   Delta X   Delta X     New X
                                 (Linear)    (Quad)   (Total)
    R1        2.29691  -0.03258   0.00000  -0.01461  -0.00438   2.29252
    R2        2.80024   0.03499   0.00000   0.04767   0.01430   2.81454
    R3        1.81165  -0.00212   0.00000  -0.00629  -0.00196   1.80970
    R4        1.73589   0.02751   0.00000   0.00810   0.00235   1.73824
    A1        3.13313   0.00550   0.00000   0.02436   0.00731   3.14044
    A2        2.57612   0.01333   0.00000   0.03162   0.00957   2.58569
    A3        3.11147   0.00270   0.00000  -0.23368  -0.06999   3.04148
    A4        3.14159   0.00000   0.00000  -0.15421   0.00000   3.14159
    D1        3.14159   0.00000   0.00000  -0.08619   0.00000   3.14159
         Item               Value     Threshold  Converged?
 Maximum Force            0.034992     0.000450     NO 
 RMS     Force            0.019040     0.000300     NO 
 Maximum Displacement     0.037844     0.001800     NO 
 RMS     Displacement     0.025209     0.001200     NO 
 Predicted change in Energy=-8.936309D-04
 GradGradGradGradGradGradGradGradGradGradGradGradGradGradGradGradGradGrad

                          Input orientation:                          
 ---------------------------------------------------------------------
 Center     Atomic      Atomic             Coordinates (Angstroms)
 Number     Number       Type             X           Y           Z
 ---------------------------------------------------------------------
      1          8           0       -2.492443    1.130567    0.000000
      2          8           0       -1.293365    0.946324    0.000000
      3          1           0        0.179007    0.721827    0.000000
      4          8           0        0.906990    0.099626    0.000000
      5          1           0        1.542998   -0.564901    0.000000
 ---------------------------------------------------------------------
                    Distance matrix (angstroms):
                    1          2          3          4          5
     1  O    0.000000
     2  O    1.213150   0.000000
     3  H    2.702538   1.489389   0.000000
     4  O    3.552321   2.357639   0.957650   0.000000
     5  H    4.377145   3.213839   1.875138   0.919839   0.000000
 Stoichiometry    H2O3
 Framework group  CS[SG(H2O3)]
 Deg. of freedom     7
 Full point group                 CS      NOp   2
 Largest Abelian subgroup         CS      NOp   2
 Largest concise Abelian subgroup C1      NOp   1
                         Standard orientation:                         
 ---------------------------------------------------------------------
 Center     Atomic      Atomic             Coordinates (Angstroms)
 Number     Number       Type             X           Y           Z
 ---------------------------------------------------------------------
      1          8           0        0.434660    1.678238    0.000000
      2          8           0        0.000000    0.545629    0.000000
      3          1           0       -0.535239   -0.844262    0.000000
      4          8           0       -0.355965   -1.784982    0.000000
      5          1           0       -0.094324   -2.666825    0.000000
 ---------------------------------------------------------------------
 Rotational constants (GHZ):    786.1968029      4.4679149      4.4426675
 Standard basis: 6-31+G(d,p) (6D, 7F)
 There are    50 symmetry adapted basis functions of A'  symmetry.
 There are    17 symmetry adapted basis functions of A"  symmetry.
 Integral buffers will be    262144 words long.
 Raffenetti 2 integral format.
 Two-electron integral symmetry is turned on.
    67 basis functions,   110 primitive gaussians,    67 cartesian basis functions
    13 alpha electrons       13 beta electrons
       nuclear repulsion energy        67.8141103024 Hartrees.
 NAtoms=    5 NActive=    5 NUniq=    5 SFac= 7.50D-01 NAtFMM=   80 NAOKFM=F Big=F
 One-electron integrals computed using PRISM.
 NBasis=    67 RedAO= T  NBF=    50    17
 NBsUse=    67 1.00D-06 NBFU=    50    17
 Initial guess read from the read-write file.
 B after Tr=     0.000000    0.000000    0.000000
         Rot=    1.000000    0.000000    0.000000    0.000000 Ang=   0.00 deg.
 Initial guess orbital symmetries:
       Occupied  (A') (A') (A') (A') (A') (A') (A') (A") (A') (A')
                 (A") (A') (A")
       Virtual   (A') (A') (A') (A') (A') (A") (A') (A") (A') (A')
                 (A') (A") (A') (A') (A') (A') (A') (A') (A') (A")
                 (A') (A") (A') (A') (A") (A') (A') (A") (A') (A')
                 (A") (A') (A") (A') (A') (A') (A") (A') (A') (A")
                 (A") (A') (A') (A') (A") (A') (A') (A") (A') (A')
                 (A') (A') (A') (A')
 Harris functional with IExCor= 1009 diagonalized for initial guess.
 ExpMin= 8.45D-02 ExpMax= 5.48D+03 ExpMxC= 8.25D+02 IAcc=2 IRadAn=         0 AccDes= 0.00D+00
 HarFok:  IExCor= 1009 AccDes= 0.00D+00 IRadAn=         0 IDoV= 1
 ScaDFX=  1.000000  1.000000  1.000000  1.000000
 FoFCou: FMM=F IPFlag=           0 FMFlag=      100000 FMFlg1=           0
         NFxFlg=           0 DoJE=T BraDBF=F KetDBF=T FulRan=T
         Omega=  0.000000  0.000000  1.000000  0.000000  0.000000 ICntrl=     500 IOpCl=  0
         NMat0=    1 NMatS0=    1 NMatT0=    0 NMatD0=    1 NMtDS0=    0 NMtDT0=    0
         I1Cent=           4 NGrid=           0.
 Petite list used in FoFCou.
 Requested convergence on RMS density matrix=1.00D-08 within 128 cycles.
 Requested convergence on MAX density matrix=1.00D-06.
 Requested convergence on             energy=1.00D-06.
 No special actions if energy rises.
 Keep R1 ints in memory in canonical form, NReq=3551244.
 Integral accuracy reduced to 1.0D-05 until final iterations.
 Initial convergence to 1.0D-05 achieved.  Increase integral accuracy.
 SCF Done:  E(RM062X) =  -226.539504117     A.U. after   15 cycles
             Convg  =    0.1558D-08             -V/T =  2.0078
 Calling FoFJK, ICntrl=      2127 FMM=F ISym2X=1 I1Cent= 0 IOpClX= 0 NMat=1 NMatS=1 NMatT=0.
 ***** Axes restored to original set *****
 -------------------------------------------------------------------
 Center     Atomic                   Forces (Hartrees/Bohr)
 Number     Number              X              Y              Z
 -------------------------------------------------------------------
      1        8           0.028183422   -0.006847101    0.000000000
      2        8          -0.061297756    0.018876934    0.000000000
      3        1           0.027479799   -0.021016018    0.000000000
      4        8          -0.009858944    0.029820238    0.000000000
      5        1           0.015493478   -0.020834053    0.000000000
 -------------------------------------------------------------------
 Cartesian Forces:  Max     0.061297756 RMS     0.022821488

 GradGradGradGradGradGradGradGradGradGradGradGradGradGradGradGradGradGrad
 Berny optimization.
 Internal  Forces:  Max     0.034557532 RMS     0.018079167
 Search for a saddle point.
 Step number   6 out of a maximum of  100
 All quantities printed in internal units (Hartrees-Bohrs-Radians)
 Swaping is turned off.
 Update second derivatives using D2CorX and points    3    4    5    6
 The second derivative matrix:
                          R1        R2        R3        R4        A1
           R1           0.40080
           R2          -0.00218   0.13303
           R3           0.10726   0.07568   0.37556
           R4          -0.00855   0.00134  -0.01149   0.85004
           A1          -0.03816  -0.05151  -0.02701  -0.01024  -0.14660
           A2           0.00130   0.05277   0.02048   0.00164  -0.01511
           A3           0.02010   0.02087   0.00574   0.00380  -0.02116
           A4           0.00000   0.00000   0.00000   0.00000   0.00000
           D1           0.00000   0.00000   0.00000   0.00000   0.00000
                          A2        A3        A4        D1
           A2           0.10956
           A3           0.02634  -0.11341
           A4           0.00000   0.00000  -0.01434
           D1           0.00000   0.00000  -0.00048  -0.00400
     Eigenvalues ---   -0.16380  -0.11359  -0.01436  -0.00398   0.06504
     Eigenvalues ---    0.15774   0.30378   0.50912   0.85070
 Eigenvectors required to have negative eigenvalues:
                          A1        A3        R2        R1        R3
   1                    0.93663   0.31757   0.13801   0.04988   0.01468
                          R4        A2        D1        A4
   1                    0.00868  -0.00685   0.00000   0.00000
 RFO step:  Lambda0=3.058160340D-04 Lambda=-1.14703597D-01.
 Linear search not attempted -- option 19 set.
[...]
 Step number  99 out of a maximum of  100
 All quantities printed in internal units (Hartrees-Bohrs-Radians)
 Swaping is turned off.
 Update second derivatives using D2CorX and points   94   95   96   97   98
                                                     99
 The second derivative matrix:
                          R1        R2        R3        R4        A1
           R1           0.86167
           R2           0.00012   0.00355
           R3          -0.00119   0.00907   0.51902
           R4          -0.00500   0.00047  -0.01629   0.85156
           A1           0.00480   0.00488  -0.00544  -0.00390   0.01638
           A2           0.00200   0.01882   0.04491   0.02040  -0.02776
           A3           0.00040   0.00424   0.02059   0.01181  -0.01752
           A4           0.00135  -0.00061  -0.00140  -0.00316   0.00260
           D1           0.00015  -0.00245   0.00012   0.00015   0.00011
                          A2        A3        A4        D1
           A2           0.20761
           A3           0.10405   0.05764
           A4          -0.01191  -0.00870   0.00689
           D1          -0.00492  -0.00020  -0.00002   0.00338
     Eigenvalues ---   -0.00313   0.00124   0.00460   0.00708   0.01823
     Eigenvalues ---    0.25651   0.52830   0.85093   0.86395
 Eigenvectors required to have negative eigenvalues:
                          R2        A3        A1        A2        D1
   1                    0.83837   0.31902  -0.31475  -0.26381   0.13248
                          A4        R3        R1        R4
   1                    0.09535  -0.00749   0.00191   0.00020
 RFO step:  Lambda0=5.968797977D-05 Lambda=-8.82685589D-05.
 Linear search not attempted -- option 19 set.
 Iteration  1 RMS(Cart)=  0.06133508 RMS(Int)=  0.03769209
 Iteration  2 RMS(Cart)=  0.00629095 RMS(Int)=  0.00239118
 Iteration  3 RMS(Cart)=  0.00046203 RMS(Int)=  0.00000270
 Iteration  4 RMS(Cart)=  0.00000333 RMS(Int)=  0.00000000
 Iteration  5 RMS(Cart)=  0.00000000 RMS(Int)=  0.00000000
 Variable       Old X    -DE/DX   Delta X   Delta X   Delta X     New X
                                 (Linear)    (Quad)   (Total)
    R1        2.25965  -0.00006   0.00000   0.00007   0.00007   2.25972
    R2        4.87267   0.00025   0.00000  -0.08003  -0.08003   4.79264
    R3        1.81909  -0.00039   0.00000   0.00002   0.00002   1.81911
    R4        1.81734  -0.00005   0.00000   0.00006   0.00006   1.81740
    A1        1.80483  -0.00014   0.00000  -0.02500  -0.02500   1.77983
    A2        1.51201  -0.00173   0.00000   0.08849   0.08849   1.60050
    A3        4.39361  -0.00094   0.00000  -0.18988  -0.18988   4.20373
    A4        5.93440   0.00000   0.00000  -0.08342  -0.08342   5.85098
    D1       -1.14027   0.00018   0.00000   0.10812   0.10812  -1.03215
         Item               Value     Threshold  Converged?
 Maximum Force            0.001731     0.000450     NO 
 RMS     Force            0.000680     0.000300     NO 
 Maximum Displacement     0.090448     0.001800     NO 
 RMS     Displacement     0.063862     0.001200     NO 
 Predicted change in Energy=-1.597684D-05
 GradGradGradGradGradGradGradGradGradGradGradGradGradGradGradGradGradGrad

                          Input orientation:                          
 ---------------------------------------------------------------------
 Center     Atomic      Atomic             Coordinates (Angstroms)
 Number     Number       Type             X           Y           Z
 ---------------------------------------------------------------------
      1          8           0       -1.917834    1.684261   -0.120024
      2          8           0       -1.996154    0.491036   -0.119592
      3          1           0        0.347023   -0.189939    0.571699
      4          8           0        0.732795    0.262398   -0.185421
      5          1           0        1.677355    0.085687   -0.146662
 ---------------------------------------------------------------------
                    Distance matrix (angstroms):
                    1          2          3          4          5
     1  O    0.000000
     2  O    1.195792   0.000000
     3  H    3.020047   2.536157   0.000000
     4  O    3.008622   2.739302   0.962632   0.000000
     5  H    3.934657   3.695905   1.536814   0.961729   0.000000
 Stoichiometry    H2O3
 Framework group  C1[X(H2O3)]
 Deg. of freedom     9
 Full point group                 C1      NOp   1
 Largest Abelian subgroup         C1      NOp   1
 Largest concise Abelian subgroup C1      NOp   1
                         Standard orientation:                         
 ---------------------------------------------------------------------
 Center     Atomic      Atomic             Coordinates (Angstroms)
 Number     Number       Type             X           Y           Z
 ---------------------------------------------------------------------
      1          8           0        1.269357   -0.549285    0.036126
      2          8           0        0.949862    0.599970   -0.047865
      3          1           0       -1.487664    0.520796    0.648046
      4          8           0       -1.701782   -0.087198   -0.066907
      5          1           0       -2.651832   -0.228688   -0.018875
 ---------------------------------------------------------------------
 Rotational constants (GHZ):     43.7014122      5.2621518      4.7428163
 Standard basis: 6-31+G(d,p) (6D, 7F)
 There are    67 symmetry adapted basis functions of A   symmetry.
 Integral buffers will be    262144 words long.
 Raffenetti 2 integral format.
 Two-electron integral symmetry is turned on.
    67 basis functions,   110 primitive gaussians,    67 cartesian basis functions
    13 alpha electrons       13 beta electrons
       nuclear repulsion energy        66.3786857460 Hartrees.
 NAtoms=    5 NActive=    5 NUniq=    5 SFac= 7.50D-01 NAtFMM=   80 NAOKFM=F Big=F
 One-electron integrals computed using PRISM.
 NBasis=    67 RedAO= T  NBF=    67
 NBsUse=    67 1.00D-06 NBFU=    67
 Initial guess read from the read-write file.
 B after Tr=     0.000000    0.000000    0.000000
         Rot=    1.000000    0.000000    0.000000    0.000000 Ang=   0.00 deg.
 Initial guess orbital symmetries:
       Occupied  (A) (A) (A) (A) (A) (A) (A) (A) (A) (A) (A) (A)
                 (A)
       Virtual   (A) (A) (A) (A) (A) (A) (A) (A) (A) (A) (A) (A)
                 (A) (A) (A) (A) (A) (A) (A) (A) (A) (A) (A) (A)
                 (A) (A) (A) (A) (A) (A) (A) (A) (A) (A) (A) (A)
                 (A) (A) (A) (A) (A) (A) (A) (A) (A) (A) (A) (A)
                 (A) (A) (A) (A) (A) (A)
 Harris functional with IExCor= 1009 diagonalized for initial guess.
 ExpMin= 8.45D-02 ExpMax= 5.48D+03 ExpMxC= 8.25D+02 IAcc=2 IRadAn=         0 AccDes= 0.00D+00
 HarFok:  IExCor= 1009 AccDes= 0.00D+00 IRadAn=         0 IDoV= 1
 ScaDFX=  1.000000  1.000000  1.000000  1.000000
 FoFCou: FMM=F IPFlag=           0 FMFlag=      100000 FMFlg1=           0
         NFxFlg=           0 DoJE=T BraDBF=F KetDBF=T FulRan=T
         Omega=  0.000000  0.000000  1.000000  0.000000  0.000000 ICntrl=     500 IOpCl=  0
         NMat0=    1 NMatS0=    1 NMatT0=    0 NMatD0=    1 NMtDS0=    0 NMtDT0=    0
         I1Cent=           4 NGrid=           0.
 Petite list used in FoFCou.
 Requested convergence on RMS density matrix=1.00D-08 within 128 cycles.
 Requested convergence on MAX density matrix=1.00D-06.
 Requested convergence on             energy=1.00D-06.
 No special actions if energy rises.
 Keep R1 ints in memory in canonical form, NReq=3551234.
 Integral accuracy reduced to 1.0D-05 until final iterations.
 Initial convergence to 1.0D-05 achieved.  Increase integral accuracy.
 SCF Done:  E(RM062X) =  -226.603025526     A.U. after   31 cycles
             Convg  =    0.2499D-08             -V/T =  2.0081
 Calling FoFJK, ICntrl=      2127 FMM=F ISym2X=0 I1Cent= 0 IOpClX= 0 NMat=1 NMatS=1 NMatT=0.
 ***** Axes restored to original set *****
 -------------------------------------------------------------------
 Center     Atomic                   Forces (Hartrees/Bohr)
 Number     Number              X              Y              Z
 -------------------------------------------------------------------
      1        8          -0.000086579   -0.000147465   -0.000243841
      2        8           0.000251881    0.000002678    0.000119578
      3        1          -0.000574624    0.000128802    0.000354823
      4        8           0.000159392   -0.000208417    0.000433993
      5        1           0.000249929    0.000224401   -0.000664553
 -------------------------------------------------------------------
 Cartesian Forces:  Max     0.000664553 RMS     0.000310996

 GradGradGradGradGradGradGradGradGradGradGradGradGradGradGradGradGradGrad
 Berny optimization.
 Internal  Forces:  Max     0.001324807 RMS     0.000618606
 Search for a saddle point.
 Step number 100 out of a maximum of  100
 All quantities printed in internal units (Hartrees-Bohrs-Radians)
 Swaping is turned off.
 Update second derivatives using D2CorX and points   93   94   95   96   97
                                                     98   99  100
 The second derivative matrix:
                          R1        R2        R3        R4        A1
           R1           0.86168
           R2           0.00034   0.00625
           R3          -0.00127   0.00522   0.51921
           R4          -0.00501  -0.00032  -0.01626   0.85157
           A1           0.00454   0.00259   0.00209  -0.00237   0.01459
           A2           0.00191   0.00990   0.04185   0.01983  -0.00544
           A3           0.00008  -0.00342   0.02624   0.01296  -0.00619
           A4           0.00137   0.00121  -0.00638  -0.00402   0.00384
           D1           0.00050  -0.00259   0.00111   0.00005  -0.00056
                          A2        A3        A4        D1
           A2           0.18930
           A3           0.11442   0.07468
           A4          -0.02826  -0.01656   0.00579
           D1           0.00200   0.00266   0.00104   0.00312
     Eigenvalues ---   -0.00414   0.00102   0.00331   0.01068   0.01818
     Eigenvalues ---    0.25398   0.52826   0.85093   0.86395
 Eigenvectors required to have negative eigenvalues:
                          R2        A3        A2        A4        D1
   1                    0.62761   0.51662  -0.39197  -0.37670   0.20175
                          A1        R3        R1        R4
   1                    0.05399  -0.00607   0.00075  -0.00025
 RFO step:  Lambda0=6.506740295D-06 Lambda=-3.13347509D-05.
 Linear search not attempted -- option 19 set.
 Iteration  1 RMS(Cart)=  0.02057090 RMS(Int)=  0.00485636
 Iteration  2 RMS(Cart)=  0.00232685 RMS(Int)=  0.00010125
 Iteration  3 RMS(Cart)=  0.00007804 RMS(Int)=  0.00000009
 Iteration  4 RMS(Cart)=  0.00000004 RMS(Int)=  0.00000000
 Variable       Old X    -DE/DX   Delta X   Delta X   Delta X     New X
                                 (Linear)    (Quad)   (Total)
    R1        2.25972  -0.00008   0.00000  -0.00014  -0.00014   2.25958
    R2        4.79264  -0.00033   0.00000   0.01014   0.01014   4.80278
    R3        1.81911   0.00070   0.00000   0.00056   0.00056   1.81967
    R4        1.81740   0.00018   0.00000   0.00007   0.00007   1.81747
    A1        1.77983   0.00012   0.00000   0.01606   0.01606   1.79589
    A2        1.60050   0.00132   0.00000  -0.03025  -0.03025   1.57025
    A3        4.20373   0.00101   0.00000   0.06794   0.06794   4.27166
    A4        5.85098  -0.00008   0.00000   0.02506   0.02506   5.87604
    D1       -1.03215   0.00003   0.00000  -0.02532  -0.02532  -1.05747
         Item               Value     Threshold  Converged?
 Maximum Force            0.001325     0.000450     NO 
 RMS     Force            0.000619     0.000300     NO 
 Maximum Displacement     0.028823     0.001800     NO 
 RMS     Displacement     0.022889     0.001200     NO 
 Predicted change in Energy=-1.249697D-05
 Optimization stopped.
    -- Number of steps exceeded,  NStep= 100
    -- Flag reset to prevent archiving.
                           ----------------------------
                           ! Non-Optimized Parameters !
                           ! (Angstroms and Degrees)  !
 --------------------------                            --------------------------
 ! Name  Definition              Value          Derivative Info.                !
 --------------------------------------------------------------------------------
 ! R1    R(1,2)                  1.1957         -DE/DX =   -0.0001              !
 ! R2    R(2,3)                  2.5415         -DE/DX =   -0.0003              !
 ! R3    R(3,4)                  0.9629         -DE/DX =    0.0007              !
 ! R4    R(4,5)                  0.9618         -DE/DX =    0.0002              !
 ! A1    A(1,2,3)              102.8967         -DE/DX =    0.0001              !
 ! A2    A(2,3,4)               89.9687         -DE/DX =    0.0013              !
 ! A3    L(3,4,5,2,-1)         244.7483         -DE/DX =    0.001               !
 ! A4    L(3,4,5,2,-2)         336.6723         -DE/DX =   -0.0001              !
 ! D1    D(1,2,3,4)            -60.5886         -DE/DX =    0.0                 !
 --------------------------------------------------------------------------------
 GradGradGradGradGradGradGradGradGradGradGradGradGradGradGradGradGradGrad

                          Input orientation:                          
 ---------------------------------------------------------------------
 Center     Atomic      Atomic             Coordinates (Angstroms)
 Number     Number       Type             X           Y           Z
 ---------------------------------------------------------------------
      1          8           0       -1.917834    1.684261   -0.120024
      2          8           0       -1.996154    0.491036   -0.119592
      3          1           0        0.347023   -0.189939    0.571699
      4          8           0        0.732795    0.262398   -0.185421
      5          1           0        1.677355    0.085687   -0.146662
 ---------------------------------------------------------------------
                    Distance matrix (angstroms):
                    1          2          3          4          5
     1  O    0.000000
     2  O    1.195792   0.000000
     3  H    3.020047   2.536157   0.000000
     4  O    3.008622   2.739302   0.962632   0.000000
     5  H    3.934657   3.695905   1.536814   0.961729   0.000000
 Stoichiometry    H2O3
 Framework group  C1[X(H2O3)]
 Deg. of freedom     9
 Full point group                 C1      NOp   1
 Largest Abelian subgroup         C1      NOp   1
 Largest concise Abelian subgroup C1      NOp   1
                         Standard orientation:                         
 ---------------------------------------------------------------------
 Center     Atomic      Atomic             Coordinates (Angstroms)
 Number     Number       Type             X           Y           Z
 ---------------------------------------------------------------------
      1          8           0        1.269357   -0.549285    0.036126
      2          8           0        0.949862    0.599970   -0.047865
      3          1           0       -1.487664    0.520796    0.648046
      4          8           0       -1.701782   -0.087198   -0.066907
      5          1           0       -2.651832   -0.228688   -0.018875
 ---------------------------------------------------------------------
 Rotational constants (GHZ):     43.7014122      5.2621518      4.7428163

 **********************************************************************

            Population analysis using the SCF density.

 **********************************************************************

 Orbital symmetries:
       Occupied  (A) (A) (A) (A) (A) (A) (A) (A) (A) (A) (A) (A)
                 (A)
       Virtual   (A) (A) (A) (A) (A) (A) (A) (A) (A) (A) (A) (A)
                 (A) (A) (A) (A) (A) (A) (A) (A) (A) (A) (A) (A)
                 (A) (A) (A) (A) (A) (A) (A) (A) (A) (A) (A) (A)
                 (A) (A) (A) (A) (A) (A) (A) (A) (A) (A) (A) (A)
                 (A) (A) (A) (A) (A) (A)
 The electronic state is 1-A.
 Alpha  occ. eigenvalues --  -19.80382 -19.80263 -19.65403  -1.42534  -1.13896
 Alpha  occ. eigenvalues --   -0.90598  -0.62637  -0.61534  -0.60882  -0.58895
 Alpha  occ. eigenvalues --   -0.47283  -0.40106  -0.33121
 Alpha virt. eigenvalues --   -0.10720   0.05944   0.10702   0.11404   0.14380
 Alpha virt. eigenvalues --    0.17986   0.18737   0.20359   0.21594   0.23209
 Alpha virt. eigenvalues --    0.25618   0.26686   0.30056   0.34800   0.36193
 Alpha virt. eigenvalues --    0.38700   0.98574   1.04440   1.06779   1.11310
 Alpha virt. eigenvalues --    1.13546   1.13925   1.17085   1.19426   1.21281
 Alpha virt. eigenvalues --    1.21941   1.25292   1.29113   1.44527   1.56456
 Alpha virt. eigenvalues --    1.56773   1.58533   1.59193   1.60091   1.65991
 Alpha virt. eigenvalues --    1.67331   1.71498   1.99725   2.00534   2.28469
 Alpha virt. eigenvalues --    2.29907   2.58101   2.58309   2.64351   2.66776
 Alpha virt. eigenvalues --    2.67723   2.68034   2.98530   3.05882   3.40890
 Alpha virt. eigenvalues --    3.55508   3.73946   4.06922   4.13171
          Condensed to atoms (all electrons):
              1          2          3          4          5
     1  O    7.699531   0.298122   0.002301  -0.016535   0.000938
     2  O    0.298122   7.697015  -0.001266   0.016811  -0.000239
     3  H    0.002301  -0.001266   0.363617   0.291773  -0.021580
     4  O   -0.016535   0.016811   0.291773   8.189523   0.279532
     5  H    0.000938  -0.000239  -0.021580   0.279532   0.350598
 Mulliken atomic charges:
              1
     1  O    0.015643
     2  O   -0.010444
     3  H    0.365154
     4  O   -0.761105
     5  H    0.390751
 Sum of Mulliken atomic charges =   0.00000
 Mulliken charges with hydrogens summed into heavy atoms:
              1
     1  O    0.015643
     2  O   -0.010444
     4  O   -0.005199
 Sum of Mulliken charges with hydrogens summed into heavy atoms =   0.00000
 Electronic spatial extent (au):  <R**2>=            242.8041
 Charge=              0.0000 electrons
 Dipole moment (field-independent basis, Debye):
    X=             -1.4537    Y=              0.8090    Z=              1.4108  Tot=              2.1813
 Quadrupole moment (field-independent basis, Debye-Ang):
   XX=            -10.1075   YY=            -17.4294   ZZ=            -17.1689
   XY=             -0.3435   XZ=             -1.3501   YZ=              1.2346
 Traceless Quadrupole moment (field-independent basis, Debye-Ang):
   XX=              4.7944   YY=             -2.5275   ZZ=             -2.2670
   XY=             -0.3435   XZ=             -1.3501   YZ=              1.2346
 Octapole moment (field-independent basis, Debye-Ang**2):
  XXX=            -20.3164  YYY=              0.7153  ZZZ=              1.2779  XYY=              0.0594
  XXY=             -0.2162  XXZ=              4.5489  XZZ=             -0.2997  YZZ=              0.5538
  YYZ=              0.5319  XYZ=             -1.4196
 Hexadecapole moment (field-independent basis, Debye-Ang**3):
 XXXX=           -140.2936 YYYY=            -35.0292 ZZZZ=            -15.4847 XXXY=              7.1113
 XXXZ=             -0.9704 YYYX=             -0.9199 YYYZ=              1.1807 ZZZX=             -1.5122
 ZZZY=              1.1754 XXYY=            -42.2574 XXZZ=            -38.9387 YYZZ=             -8.8957
 XXYZ=              2.9623 YYXZ=             -0.1905 ZZXY=             -0.6359
 N-N= 6.637868574596D+01 E-N=-6.675419039050D+02  KE= 2.247846258080D+02


 I SUPPOSE A BABY LLAMA HAS A MMAMA AND A PPOPA.
     -- RICHARD AMOUR
 Error termination request processed by link 9999.
 Error termination via Lnk1e in C:\G09W\l9999.exe at Tue Feb 09 13:19:39 2021.
 Job cpu time:  0 days  0 hours 10 minutes 27.0 seconds.
 File lengths (MBytes):  RWF=      6 Int=      0 D2E=      0 Chk=      1 Scr=      1
