 Entering Link 1 = C:\G09W\l1.exe PID=      8360.
  
 Copyright (c) 1988,1990,1992,1993,1995,1998,2003,2009, Gaussian, Inc.
                  All Rights Reserved.
  
 This is part of the Gaussian(R) 09 program.  It is based on
 the Gaussian(R) 03 system (copyright 2003, Gaussian, Inc.),
 the Gaussian(R) 98 system (copyright 1998, Gaussian, Inc.),
 the Gaussian(R) 94 system (copyright 1995, Gaussian, Inc.),
 the Gaussian 92(TM) system (copyright 1992, Gaussian, Inc.),
 the Gaussian 90(TM) system (copyright 1990, Gaussian, Inc.),
 the Gaussian 88(TM) system (copyright 1988, Gaussian, Inc.),
 the Gaussian 86(TM) system (copyright 1986, Carnegie Mellon
 University), and the Gaussian 82(TM) system (copyright 1983,
 Carnegie Mellon University). Gaussian is a federally registered
 trademark of Gaussian, Inc.
  
 This software contains proprietary and confidential information,
 including trade secrets, belonging to Gaussian, Inc.
  
 This software is provided under written license and may be
 used, copied, transmitted, or stored only in accord with that
 written license.
  
 The following legend is applicable only to US Government
 contracts under FAR:
  
                    RESTRICTED RIGHTS LEGEND
  
 Use, reproduction and disclosure by the US Government is
 subject to restrictions as set forth in subparagraphs (a)
 and (c) of the Commercial Computer Software - Restricted
 Rights clause in FAR 52.227-19.
  
 Gaussian, Inc.
 340 Quinnipiac St., Bldg. 40, Wallingford CT 06492
  
  
 ---------------------------------------------------------------
 Warning -- This program may not be used in any manner that
 competes with the business of Gaussian, Inc. or will provide
 assistance to any competitor of Gaussian, Inc.  The licensee
 of this program is prohibited from giving any competitor of
 Gaussian, Inc. access to this program.  By using this program,
 the user acknowledges that Gaussian, Inc. is engaged in the
 business of creating and licensing software in the field of
 computational chemistry and represents and warrants to the
 licensee that it is not a competitor of Gaussian, Inc. and that
 it will not use this program in any manner prohibited above.
 ---------------------------------------------------------------
  

 Cite this work as:
 Gaussian 09, Revision A.02,
 M. J. Frisch, G. W. Trucks, H. B. Schlegel, G. E. Scuseria, 
 M. A. Robb, J. R. Cheeseman, G. Scalmani, V. Barone, B. Mennucci, 
 G. A. Petersson, H. Nakatsuji, M. Caricato, X. Li, H. P. Hratchian, 
 A. F. Izmaylov, J. Bloino, G. Zheng, J. L. Sonnenberg, M. Hada, 
 M. Ehara, K. Toyota, R. Fukuda, J. Hasegawa, M. Ishida, T. Nakajima, 
 Y. Honda, O. Kitao, H. Nakai, T. Vreven, J. A. Montgomery, Jr., 
 J. E. Peralta, F. Ogliaro, M. Bearpark, J. J. Heyd, E. Brothers, 
 K. N. Kudin, V. N. Staroverov, R. Kobayashi, J. Normand, 
 K. Raghavachari, A. Rendell, J. C. Burant, S. S. Iyengar, J. Tomasi, 
 M. Cossi, N. Rega, J. M. Millam, M. Klene, J. E. Knox, J. B. Cross, 
 V. Bakken, C. Adamo, J. Jaramillo, R. Gomperts, R. E. Stratmann, 
 O. Yazyev, A. J. Austin, R. Cammi, C. Pomelli, J. W. Ochterski, 
 R. L. Martin, K. Morokuma, V. G. Zakrzewski, G. A. Voth, 
 P. Salvador, J. J. Dannenberg, S. Dapprich, A. D. Daniels, 
 O. Farkas, J. B. Foresman, J. V. Ortiz, J. Cioslowski, 
 and D. J. Fox, Gaussian, Inc., Wallingford CT, 2009.
 
 ******************************************
 Gaussian 09:  IA32W-G09RevA.02 11-Jun-2009
                09-Feb-2021 
 ******************************************
 %chk=D:\Documents\rayGit\FQ\quimicaComputacional\proyecto\decompositionHydrogenP
 eroxide\descompositionByRadicals\gasPhase\step4\ts\Q2ST\ts\martes\topRight\ts.ch
 k
 %mem=1500MB
 %nprocshared=4
 Will use up to    4 processors via shared memory.
 ----------------------------------------------------------------------
 # opt=(readfc,ts,noeigen,maxcycles=100) geom=check guess=check freq=no
 raman 6-31+g(d,p) m062x
 ----------------------------------------------------------------------
 1/5=1,6=100,10=3,11=1,14=-1,18=20,26=3,29=2,38=1/1,3;
 2/9=110,12=2,40=1/2;
 3/5=1,6=6,7=111,11=2,14=-4,16=1,25=1,30=1,71=1,74=-55,116=-2/1,2,3;
 4/5=1/1;
 5/5=2,38=6/2;
 6/7=2,8=2,9=2,10=2,28=1/1;
 7//1,2,3,16;
 1/5=1,6=100,11=1,14=-1,18=20/3(2);
 2/9=110/2;
 99//99;
 2/9=110/2;
 3/5=1,6=6,7=111,11=2,14=-2,16=1,25=1,30=1,71=1,74=-55/1,2,3;
 4/5=5,16=3/1;
 5/5=2,38=5/2;
 7//1,2,3,16;
 1/5=1,6=100,11=1,14=-1,18=20/3(-5);
 2/9=110/2;
 6/7=2,8=2,9=2,10=2,19=2,28=1/1;
 99/9=1/99;
 ------------
 ts OOH vs OH
 ------------
 Redundant internal coordinates taken from checkpoint file:
 D:\Documents\rayGit\FQ\quimicaComputacional\proyecto\decompositionHydrogenPeroxide\descompositionByRadicals\gasPhase\step4\ts\Q2ST\ts\martes\topRight\ts.chk
 Charge =  0 Multiplicity = 1
 O,0,-1.9178335552,1.6842605991,-0.1200241785
 O,0,-1.9961544123,0.4910360725,-0.1195919516
 H,0,0.3470232961,-0.1899388627,0.5716993442
 O,0,0.7327953337,0.2623977658,-0.1854209414
 H,0,1.6773551677,0.0856873253,-0.1466622728
 Recover connectivity data from disk.

 GradGradGradGradGradGradGradGradGradGradGradGradGradGradGradGradGradGrad
 Berny optimization.
 Initialization pass.
 Force constant matrix read from checkpoint file:
 D:\Documents\rayGit\FQ\quimicaComputacional\proyecto\decompositionHydrogenPeroxi
 de\descompositionByRadicals\gasPhase\step4\ts\Q2ST\ts\martes\topRight\ts.chk
                           ----------------------------
                           !    Initial Parameters    !
                           ! (Angstroms and Degrees)  !
 --------------------------                            --------------------------
 ! Name  Definition              Value          Derivative Info.                !
 --------------------------------------------------------------------------------
 ! R1    R(1,2)                  1.1958         D2E/DX2 =    0.8617             !
 ! R2    R(2,3)                  2.5362         D2E/DX2 =    0.0062             !
 ! R3    R(3,4)                  0.9626         D2E/DX2 =    0.5192             !
 ! R4    R(4,5)                  0.9617         D2E/DX2 =    0.8516             !
 ! A1    A(1,2,3)              101.9768         D2E/DX2 =    0.0146             !
 ! A2    A(2,3,4)               91.702          D2E/DX2 =    0.1893             !
 ! A3    L(3,4,5,2,-1)         240.8559         D2E/DX2 =    0.0747             !
 ! A4    L(3,4,5,2,-2)         335.2363         D2E/DX2 =    0.0058             !
 ! D1    D(1,2,3,4)            -59.1381         D2E/DX2 =    0.0031             !
 --------------------------------------------------------------------------------
 Trust Radius=3.00D-01 FncErr=1.00D-07 GrdErr=1.00D-06
 Number of steps in this run= 100 maximum allowed number of steps= 100.
 Search for a saddle point of order  1.
 GradGradGradGradGradGradGradGradGradGradGradGradGradGradGradGradGradGrad

                          Input orientation:                          
 ---------------------------------------------------------------------
 Center     Atomic      Atomic             Coordinates (Angstroms)
 Number     Number       Type             X           Y           Z
 ---------------------------------------------------------------------
      1          8           0       -1.917834    1.684261   -0.120024
      2          8           0       -1.996154    0.491036   -0.119592
      3          1           0        0.347023   -0.189939    0.571699
      4          8           0        0.732795    0.262398   -0.185421
      5          1           0        1.677355    0.085687   -0.146662
 ---------------------------------------------------------------------
                    Distance matrix (angstroms):
                    1          2          3          4          5
     1  O    0.000000
     2  O    1.195792   0.000000
     3  H    3.020047   2.536157   0.000000
     4  O    3.008622   2.739302   0.962632   0.000000
     5  H    3.934657   3.695905   1.536814   0.961729   0.000000
 Stoichiometry    H2O3
 Framework group  C1[X(H2O3)]
 Deg. of freedom     9
 Full point group                 C1      NOp   1
 Largest Abelian subgroup         C1      NOp   1
 Largest concise Abelian subgroup C1      NOp   1
                         Standard orientation:                         
 ---------------------------------------------------------------------
 Center     Atomic      Atomic             Coordinates (Angstroms)
 Number     Number       Type             X           Y           Z
 ---------------------------------------------------------------------
      1          8           0        1.269357   -0.549285    0.036126
      2          8           0        0.949862    0.599970   -0.047865
      3          1           0       -1.487664    0.520796    0.648046
      4          8           0       -1.701782   -0.087198   -0.066907
      5          1           0       -2.651832   -0.228688   -0.018875
 ---------------------------------------------------------------------
 Rotational constants (GHZ):     43.7014122      5.2621518      4.7428163
 Standard basis: 6-31+G(d,p) (6D, 7F)
 There are    67 symmetry adapted basis functions of A   symmetry.
 Integral buffers will be    262144 words long.
 Raffenetti 2 integral format.
 Two-electron integral symmetry is turned on.
    67 basis functions,   110 primitive gaussians,    67 cartesian basis functions
    13 alpha electrons       13 beta electrons
       nuclear repulsion energy        66.3786857460 Hartrees.
 NAtoms=    5 NActive=    5 NUniq=    5 SFac= 7.50D-01 NAtFMM=   80 NAOKFM=F Big=F
 One-electron integrals computed using PRISM.
 NBasis=    67 RedAO= T  NBF=    67
 NBsUse=    67 1.00D-06 NBFU=    67
 Initial guess read from the checkpoint file:  D:\Documents\rayGit\FQ\quimicaComp
 utacional\proyecto\decompositionHydrogenPeroxide\descompositionByRadicals\gasPha
 se\step4\ts\Q2ST\ts\martes\topRight\ts.chk
 B after Tr=     0.000000    0.000000    0.000000
         Rot=    1.000000    0.000000    0.000000    0.000000 Ang=   0.00 deg.
 Initial guess orbital symmetries:
       Occupied  (A) (A) (A) (A) (A) (A) (A) (A) (A) (A) (A) (A)
                 (A)
       Virtual   (A) (A) (A) (A) (A) (A) (A) (A) (A) (A) (A) (A)
                 (A) (A) (A) (A) (A) (A) (A) (A) (A) (A) (A) (A)
                 (A) (A) (A) (A) (A) (A) (A) (A) (A) (A) (A) (A)
                 (A) (A) (A) (A) (A) (A) (A) (A) (A) (A) (A) (A)
                 (A) (A) (A) (A) (A) (A)
 Requested convergence on RMS density matrix=1.00D-08 within 128 cycles.
 Requested convergence on MAX density matrix=1.00D-06.
 Requested convergence on             energy=1.00D-06.
 No special actions if energy rises.
 Keep R1 ints in memory in canonical form, NReq=3551234.
 SCF Done:  E(RM062X) =  -226.603025526     A.U. after    1 cycles
             Convg  =    0.4267D-10             -V/T =  2.0081

 **********************************************************************

            Population analysis using the SCF density.

 **********************************************************************

 Orbital symmetries:
       Occupied  (A) (A) (A) (A) (A) (A) (A) (A) (A) (A) (A) (A)
                 (A)
       Virtual   (A) (A) (A) (A) (A) (A) (A) (A) (A) (A) (A) (A)
                 (A) (A) (A) (A) (A) (A) (A) (A) (A) (A) (A) (A)
                 (A) (A) (A) (A) (A) (A) (A) (A) (A) (A) (A) (A)
                 (A) (A) (A) (A) (A) (A) (A) (A) (A) (A) (A) (A)
                 (A) (A) (A) (A) (A) (A)
 The electronic state is 1-A.
 Alpha  occ. eigenvalues --  -19.80382 -19.80263 -19.65403  -1.42534  -1.13896
 Alpha  occ. eigenvalues --   -0.90598  -0.62637  -0.61534  -0.60882  -0.58895
 Alpha  occ. eigenvalues --   -0.47283  -0.40106  -0.33121
 Alpha virt. eigenvalues --   -0.10720   0.05944   0.10702   0.11404   0.14380
 Alpha virt. eigenvalues --    0.17986   0.18737   0.20359   0.21594   0.23209
 Alpha virt. eigenvalues --    0.25618   0.26686   0.30056   0.34800   0.36193
 Alpha virt. eigenvalues --    0.38700   0.98574   1.04440   1.06779   1.11310
 Alpha virt. eigenvalues --    1.13546   1.13925   1.17085   1.19426   1.21281
 Alpha virt. eigenvalues --    1.21941   1.25292   1.29113   1.44527   1.56456
 Alpha virt. eigenvalues --    1.56773   1.58533   1.59193   1.60091   1.65991
 Alpha virt. eigenvalues --    1.67331   1.71498   1.99725   2.00534   2.28469
 Alpha virt. eigenvalues --    2.29907   2.58101   2.58309   2.64351   2.66776
 Alpha virt. eigenvalues --    2.67723   2.68034   2.98530   3.05882   3.40890
 Alpha virt. eigenvalues --    3.55508   3.73946   4.06922   4.13171
          Condensed to atoms (all electrons):
              1          2          3          4          5
     1  O    7.699531   0.298122   0.002301  -0.016535   0.000938
     2  O    0.298122   7.697015  -0.001266   0.016811  -0.000239
     3  H    0.002301  -0.001266   0.363617   0.291773  -0.021580
     4  O   -0.016535   0.016811   0.291773   8.189523   0.279532
     5  H    0.000938  -0.000239  -0.021580   0.279532   0.350598
 Mulliken atomic charges:
              1
     1  O    0.015643
     2  O   -0.010444
     3  H    0.365154
     4  O   -0.761105
     5  H    0.390751
 Sum of Mulliken atomic charges =   0.00000
 Mulliken charges with hydrogens summed into heavy atoms:
              1
     1  O    0.015643
     2  O   -0.010444
     4  O   -0.005199
 Sum of Mulliken charges with hydrogens summed into heavy atoms =   0.00000
 Electronic spatial extent (au):  <R**2>=            242.8041
 Charge=              0.0000 electrons
 Dipole moment (field-independent basis, Debye):
    X=             -1.4537    Y=              0.8090    Z=              1.4108  Tot=              2.1813
 Quadrupole moment (field-independent basis, Debye-Ang):
   XX=            -10.1075   YY=            -17.4294   ZZ=            -17.1689
   XY=             -0.3435   XZ=             -1.3501   YZ=              1.2346
 Traceless Quadrupole moment (field-independent basis, Debye-Ang):
   XX=              4.7944   YY=             -2.5275   ZZ=             -2.2670
   XY=             -0.3435   XZ=             -1.3501   YZ=              1.2346
 Octapole moment (field-independent basis, Debye-Ang**2):
  XXX=            -20.3164  YYY=              0.7153  ZZZ=              1.2779  XYY=              0.0594
  XXY=             -0.2162  XXZ=              4.5489  XZZ=             -0.2997  YZZ=              0.5538
  YYZ=              0.5319  XYZ=             -1.4196
 Hexadecapole moment (field-independent basis, Debye-Ang**3):
 XXXX=           -140.2936 YYYY=            -35.0292 ZZZZ=            -15.4847 XXXY=              7.1113
 XXXZ=             -0.9704 YYYX=             -0.9199 YYYZ=              1.1807 ZZZX=             -1.5122
 ZZZY=              1.1754 XXYY=            -42.2574 XXZZ=            -38.9387 YYZZ=             -8.8957
 XXYZ=              2.9623 YYXZ=             -0.1905 ZZXY=             -0.6359
 N-N= 6.637868574596D+01 E-N=-6.675419039328D+02  KE= 2.247846258214D+02
 Calling FoFJK, ICntrl=      2127 FMM=F ISym2X=0 I1Cent= 0 IOpClX= 0 NMat=1 NMatS=1 NMatT=0.
 ***** Axes restored to original set *****
 -------------------------------------------------------------------
 Center     Atomic                   Forces (Hartrees/Bohr)
 Number     Number              X              Y              Z
 -------------------------------------------------------------------
      1        8          -0.000086579   -0.000147467   -0.000243841
      2        8           0.000251881    0.000002681    0.000119578
      3        1          -0.000574624    0.000128802    0.000354823
      4        8           0.000159392   -0.000208417    0.000433993
      5        1           0.000249929    0.000224401   -0.000664553
 -------------------------------------------------------------------
 Cartesian Forces:  Max     0.000664553 RMS     0.000310996

 GradGradGradGradGradGradGradGradGradGradGradGradGradGradGradGradGradGrad
 Berny optimization.
 Internal  Forces:  Max     0.001324807 RMS     0.000618606
 Search for a saddle point.
 Step number   1 out of a maximum of  100
 All quantities printed in internal units (Hartrees-Bohrs-Radians)
 Swaping is turned off.
 Second derivative matrix not updated -- first step.
 The second derivative matrix:
                          R1        R2        R3        R4        A1
           R1           0.86168
           R2           0.00034   0.00625
           R3          -0.00127   0.00522   0.51921
           R4          -0.00501  -0.00032  -0.01626   0.85157
           A1           0.00454   0.00259   0.00209  -0.00237   0.01459
           A2           0.00191   0.00990   0.04185   0.01983  -0.00544
           A3           0.00008  -0.00342   0.02624   0.01296  -0.00619
           A4           0.00137   0.00121  -0.00638  -0.00402   0.00384
           D1           0.00050  -0.00259   0.00111   0.00005  -0.00056
                          A2        A3        A4        D1
           A2           0.18930
           A3           0.11442   0.07468
           A4          -0.02826  -0.01656   0.00579
           D1           0.00200   0.00266   0.00104   0.00312
     Eigenvalues ---   -0.00414   0.00102   0.00331   0.01068   0.01818
     Eigenvalues ---    0.25398   0.52826   0.85093   0.86395
 Eigenvectors required to have negative eigenvalues:
                          R2        A3        A2        A4        D1
   1                    0.62761   0.51662  -0.39197  -0.37670   0.20175
                          A1        R3        R1        R4
   1                    0.05399  -0.00607   0.00075  -0.00025
 RFO step:  Lambda0=6.506739280D-06 Lambda=-3.13347567D-05.
 Linear search not attempted -- option 19 set.
 Iteration  1 RMS(Cart)=  0.02057090 RMS(Int)=  0.00485636
 Iteration  2 RMS(Cart)=  0.00232686 RMS(Int)=  0.00010125
 Iteration  3 RMS(Cart)=  0.00007804 RMS(Int)=  0.00000009
 Iteration  4 RMS(Cart)=  0.00000004 RMS(Int)=  0.00000000
 Variable       Old X    -DE/DX   Delta X   Delta X   Delta X     New X
                                 (Linear)    (Quad)   (Total)
    R1        2.25972  -0.00008   0.00000  -0.00014  -0.00014   2.25958
    R2        4.79264  -0.00033   0.00000   0.01014   0.01014   4.80278
    R3        1.81911   0.00070   0.00000   0.00056   0.00056   1.81967
    R4        1.81740   0.00018   0.00000   0.00007   0.00007   1.81747
    A1        1.77983   0.00012   0.00000   0.01606   0.01606   1.79589
    A2        1.60050   0.00132   0.00000  -0.03025  -0.03025   1.57025
    A3        4.20373   0.00101   0.00000   0.06794   0.06794   4.27166
    A4        5.85098  -0.00008   0.00000   0.02506   0.02506   5.87604
    D1       -1.03215   0.00003   0.00000  -0.02532  -0.02532  -1.05747
         Item               Value     Threshold  Converged?
 Maximum Force            0.001325     0.000450     NO 
 RMS     Force            0.000619     0.000300     NO 
 Maximum Displacement     0.028823     0.001800     NO 
 RMS     Displacement     0.022889     0.001200     NO 
 Predicted change in Energy=-1.249697D-05
 GradGradGradGradGradGradGradGradGradGradGradGradGradGradGradGradGradGrad

                          Input orientation:                          
 ---------------------------------------------------------------------
 Center     Atomic      Atomic             Coordinates (Angstroms)
 Number     Number       Type             X           Y           Z
 ---------------------------------------------------------------------
      1          8           0       -1.921858    1.688868   -0.119347
      2          8           0       -1.983516    0.494776   -0.128356
      3          1           0        0.354399   -0.199367    0.586952
      4          8           0        0.722166    0.249129   -0.181700
      5          1           0        1.671995    0.100036   -0.157549
 ---------------------------------------------------------------------
                    Distance matrix (angstroms):
                    1          2          3          4          5
     1  O    0.000000
     2  O    1.195716   0.000000
     3  H    3.040663   2.541524   0.000000
     4  O    3.011245   2.717333   0.962926   0.000000
     5  H    3.929583   3.676878   1.542720   0.961763   0.000000
 Stoichiometry    H2O3
 Framework group  C1[X(H2O3)]
 Deg. of freedom     9
 Full point group                 C1      NOp   1
 Largest Abelian subgroup         C1      NOp   1
 Largest concise Abelian subgroup C1      NOp   1
                         Standard orientation:                         
 ---------------------------------------------------------------------
 Center     Atomic      Atomic             Coordinates (Angstroms)
 Number     Number       Type             X           Y           Z
 ---------------------------------------------------------------------
      1          8           0        1.278968   -0.543533    0.036618
      2          8           0        0.934381    0.598249   -0.049015
      3          1           0       -1.503152    0.510219    0.665146
      4          8           0       -1.695455   -0.085531   -0.066515
      5          1           0       -2.640006   -0.263703   -0.033847
 ---------------------------------------------------------------------
 Rotational constants (GHZ):     44.1058594      5.2847946      4.7681597
 Standard basis: 6-31+G(d,p) (6D, 7F)
 There are    67 symmetry adapted basis functions of A   symmetry.
 Integral buffers will be    262144 words long.
 Raffenetti 2 integral format.
 Two-electron integral symmetry is turned on.
    67 basis functions,   110 primitive gaussians,    67 cartesian basis functions
    13 alpha electrons       13 beta electrons
       nuclear repulsion energy        66.4621014448 Hartrees.
 NAtoms=    5 NActive=    5 NUniq=    5 SFac= 7.50D-01 NAtFMM=   80 NAOKFM=F Big=F
 One-electron integrals computed using PRISM.
 NBasis=    67 RedAO= T  NBF=    67
 NBsUse=    67 1.00D-06 NBFU=    67
 Initial guess read from the read-write file.
 B after Tr=     0.000000    0.000000    0.000000
         Rot=    1.000000    0.000000    0.000000    0.000000 Ang=   0.00 deg.
 Initial guess orbital symmetries:
       Occupied  (A) (A) (A) (A) (A) (A) (A) (A) (A) (A) (A) (A)
                 (A)
       Virtual   (A) (A) (A) (A) (A) (A) (A) (A) (A) (A) (A) (A)
                 (A) (A) (A) (A) (A) (A) (A) (A) (A) (A) (A) (A)
                 (A) (A) (A) (A) (A) (A) (A) (A) (A) (A) (A) (A)
                 (A) (A) (A) (A) (A) (A) (A) (A) (A) (A) (A) (A)
                 (A) (A) (A) (A) (A) (A)
 Harris functional with IExCor= 1009 diagonalized for initial guess.
 ExpMin= 8.45D-02 ExpMax= 5.48D+03 ExpMxC= 8.25D+02 IAcc=2 IRadAn=         0 AccDes= 0.00D+00
 HarFok:  IExCor= 1009 AccDes= 0.00D+00 IRadAn=         0 IDoV= 1
 ScaDFX=  1.000000  1.000000  1.000000  1.000000
 FoFCou: FMM=F IPFlag=           0 FMFlag=      100000 FMFlg1=           0
         NFxFlg=           0 DoJE=T BraDBF=F KetDBF=T FulRan=T
         Omega=  0.000000  0.000000  1.000000  0.000000  0.000000 ICntrl=     500 IOpCl=  0
         NMat0=    1 NMatS0=    1 NMatT0=    0 NMatD0=    1 NMtDS0=    0 NMtDT0=    0
         I1Cent=           4 NGrid=           0.
 Petite list used in FoFCou.
 Requested convergence on RMS density matrix=1.00D-08 within 128 cycles.
 Requested convergence on MAX density matrix=1.00D-06.
 Requested convergence on             energy=1.00D-06.
 No special actions if energy rises.
 Keep R1 ints in memory in canonical form, NReq=3551234.
 Integral accuracy reduced to 1.0D-05 until final iterations.
 Initial convergence to 1.0D-05 achieved.  Increase integral accuracy.
 SCF Done:  E(RM062X) =  -226.603049954     A.U. after   19 cycles
             Convg  =    0.6105D-08             -V/T =  2.0081
 Calling FoFJK, ICntrl=      2127 FMM=F ISym2X=0 I1Cent= 0 IOpClX= 0 NMat=1 NMatS=1 NMatT=0.
 ***** Axes restored to original set *****
 -------------------------------------------------------------------
 Center     Atomic                   Forces (Hartrees/Bohr)
 Number     Number              X              Y              Z
 -------------------------------------------------------------------
      1        8          -0.000089600   -0.000060223   -0.000240449
      2        8           0.000025234   -0.000076985    0.000122151
      3        1           0.000435591    0.000125841    0.000090418
      4        8          -0.000242041    0.000224475    0.000037934
      5        1          -0.000129184   -0.000213107   -0.000010054
 -------------------------------------------------------------------
 Cartesian Forces:  Max     0.000435591 RMS     0.000178386

 GradGradGradGradGradGradGradGradGradGradGradGradGradGradGradGradGradGrad
 Berny optimization.
 Internal  Forces:  Max     0.000862280 RMS     0.000343315
 Search for a saddle point.
 Step number   2 out of a maximum of  100
 All quantities printed in internal units (Hartrees-Bohrs-Radians)
 Swaping is turned off.
 Update second derivatives using D2CorX and points    1    2
 The second derivative matrix:
                          R1        R2        R3        R4        A1
           R1           0.86168
           R2           0.00033   0.00600
           R3          -0.00128   0.00570   0.51927
           R4          -0.00501  -0.00020  -0.01625   0.85157
           A1           0.00452   0.00221   0.00285  -0.00218   0.01397
           A2           0.00194   0.01149   0.04047   0.01947  -0.00293
           A3          -0.00002  -0.00367   0.02954   0.01379  -0.00659
           A4           0.00134   0.00092  -0.00518  -0.00371   0.00339
           D1           0.00054  -0.00236  -0.00011  -0.00026  -0.00019
                          A2        A3        A4        D1
           A2           0.18203
           A3           0.12090   0.08235
           A4          -0.02529  -0.01503   0.00587
           D1          -0.00084   0.00076   0.00082   0.00348
     Eigenvalues ---   -0.00699   0.00228   0.00321   0.01013   0.01831
     Eigenvalues ---    0.25576   0.52861   0.85094   0.86395
 Eigenvectors required to have negative eigenvalues:
                          A3        R2        A2        A4        A1
   1                    0.60176   0.58776  -0.45223  -0.26520   0.10879
                          D1        R3        R1        R4
   1                    0.07530  -0.00856   0.00058  -0.00029
 RFO step:  Lambda0=7.063624113D-06 Lambda=-6.71109562D-06.
 Linear search not attempted -- option 19 set.
 Iteration  1 RMS(Cart)=  0.01003415 RMS(Int)=  0.00147442
 Iteration  2 RMS(Cart)=  0.00017748 RMS(Int)=  0.00000032
 Iteration  3 RMS(Cart)=  0.00000041 RMS(Int)=  0.00000000
 Variable       Old X    -DE/DX   Delta X   Delta X   Delta X     New X
                                 (Linear)    (Quad)   (Total)
    R1        2.25958   0.00001   0.00000  -0.00003  -0.00003   2.25955
    R2        4.80278   0.00009   0.00000  -0.02522  -0.02522   4.77757
    R3        1.81967  -0.00034   0.00000  -0.00003  -0.00003   1.81964
    R4        1.81747  -0.00009   0.00000  -0.00001  -0.00001   1.81746
    A1        1.79589   0.00014   0.00000   0.00779   0.00779   1.80368
    A2        1.57025  -0.00086   0.00000   0.01381   0.01381   1.58406
    A3        4.27166  -0.00040   0.00000  -0.02937  -0.02937   4.24230
    A4        5.87604  -0.00001   0.00000  -0.01969  -0.01969   5.85635
    D1       -1.05747   0.00005   0.00000   0.01181   0.01181  -1.04566
         Item               Value     Threshold  Converged?
 Maximum Force            0.000862     0.000450     NO 
 RMS     Force            0.000343     0.000300     NO 
 Maximum Displacement     0.013378     0.001800     NO 
 RMS     Displacement     0.010036     0.001200     NO 
 Predicted change in Energy= 1.798429D-07
 GradGradGradGradGradGradGradGradGradGradGradGradGradGradGradGradGradGrad

                          Input orientation:                          
 ---------------------------------------------------------------------
 Center     Atomic      Atomic             Coordinates (Angstroms)
 Number     Number       Type             X           Y           Z
 ---------------------------------------------------------------------
      1          8           0       -1.925707    1.688238   -0.120959
      2          8           0       -1.979830    0.493764   -0.122824
      3          1           0        0.348452   -0.196896    0.579872
      4          8           0        0.726206    0.254376   -0.182266
      5          1           0        1.674064    0.093960   -0.153824
 ---------------------------------------------------------------------
                    Distance matrix (angstroms):
                    1          2          3          4          5
     1  O    0.000000
     2  O    1.195701   0.000000
     3  H    3.035901   2.528179   0.000000
     4  O    3.015354   2.717254   0.962912   0.000000
     5  H    3.937151   3.675832   1.542775   0.961757   0.000000
 Stoichiometry    H2O3
 Framework group  C1[X(H2O3)]
 Deg. of freedom     9
 Full point group                 C1      NOp   1
 Largest Abelian subgroup         C1      NOp   1
 Largest concise Abelian subgroup C1      NOp   1
                         Standard orientation:                         
 ---------------------------------------------------------------------
 Center     Atomic      Atomic             Coordinates (Angstroms)
 Number     Number       Type             X           Y           Z
 ---------------------------------------------------------------------
      1          8           0        1.282319   -0.542096    0.036513
      2          8           0        0.932006    0.597939   -0.048933
      3          1           0       -1.494883    0.516905    0.654865
      4          8           0       -1.696998   -0.088734   -0.065933
      5          1           0       -2.643730   -0.253778   -0.028036
 ---------------------------------------------------------------------
 Rotational constants (GHZ):     44.2437438      5.2775942      4.7625416
 Standard basis: 6-31+G(d,p) (6D, 7F)
 There are    67 symmetry adapted basis functions of A   symmetry.
 Integral buffers will be    262144 words long.
 Raffenetti 2 integral format.
 Two-electron integral symmetry is turned on.
    67 basis functions,   110 primitive gaussians,    67 cartesian basis functions
    13 alpha electrons       13 beta electrons
       nuclear repulsion energy        66.4568083656 Hartrees.
 NAtoms=    5 NActive=    5 NUniq=    5 SFac= 7.50D-01 NAtFMM=   80 NAOKFM=F Big=F
 One-electron integrals computed using PRISM.
 NBasis=    67 RedAO= T  NBF=    67
 NBsUse=    67 1.00D-06 NBFU=    67
 Initial guess read from the read-write file.
 B after Tr=     0.000000    0.000000    0.000000
         Rot=    1.000000    0.000000    0.000000    0.000000 Ang=   0.00 deg.
 Initial guess orbital symmetries:
       Occupied  (A) (A) (A) (A) (A) (A) (A) (A) (A) (A) (A) (A)
                 (A)
       Virtual   (A) (A) (A) (A) (A) (A) (A) (A) (A) (A) (A) (A)
                 (A) (A) (A) (A) (A) (A) (A) (A) (A) (A) (A) (A)
                 (A) (A) (A) (A) (A) (A) (A) (A) (A) (A) (A) (A)
                 (A) (A) (A) (A) (A) (A) (A) (A) (A) (A) (A) (A)
                 (A) (A) (A) (A) (A) (A)
 Requested convergence on RMS density matrix=1.00D-08 within 128 cycles.
 Requested convergence on MAX density matrix=1.00D-06.
 Requested convergence on             energy=1.00D-06.
 No special actions if energy rises.
 Keep R1 ints in memory in canonical form, NReq=3551234.
 SCF Done:  E(RM062X) =  -226.603043272     A.U. after   15 cycles
             Convg  =    0.2812D-08             -V/T =  2.0081
 Calling FoFJK, ICntrl=      2127 FMM=F ISym2X=0 I1Cent= 0 IOpClX= 0 NMat=1 NMatS=1 NMatT=0.
 ***** Axes restored to original set *****
 -------------------------------------------------------------------
 Center     Atomic                   Forces (Hartrees/Bohr)
 Number     Number              X              Y              Z
 -------------------------------------------------------------------
      1        8          -0.000074463   -0.000039189   -0.000219143
      2        8           0.000014953   -0.000102590    0.000091089
      3        1           0.000402250    0.000131447    0.000130744
      4        8          -0.000211619    0.000209413    0.000011658
      5        1          -0.000131122   -0.000199081   -0.000014348
 -------------------------------------------------------------------
 Cartesian Forces:  Max     0.000402250 RMS     0.000166560

 GradGradGradGradGradGradGradGradGradGradGradGradGradGradGradGradGradGrad
 Berny optimization.
 Internal  Forces:  Max     0.000812184 RMS     0.000318568
 Search for a saddle point.
 Step number   3 out of a maximum of  100
 All quantities printed in internal units (Hartrees-Bohrs-Radians)
 Swaping is turned off.
 Update second derivatives using D2CorX and points    1    2    3
 The second derivative matrix:
                          R1        R2        R3        R4        A1
           R1           0.86168
           R2           0.00099   0.00886
           R3          -0.00131  -0.00044   0.51946
           R4          -0.00502  -0.00206  -0.01620   0.85158
           A1           0.00412   0.00335   0.00673  -0.00100   0.01134
           A2           0.00177  -0.00555   0.04158   0.01977   0.00756
           A3           0.00006  -0.01135   0.02858   0.01349  -0.00114
           A4           0.00165   0.00125  -0.00812  -0.00461   0.00462
           D1           0.00047  -0.00221   0.00055  -0.00006  -0.00061
                          A2        A3        A4        D1
           A2           0.18668
           A3           0.11899   0.07958
           A4          -0.03335  -0.01890   0.00553
           D1           0.00098   0.00167   0.00100   0.00342
     Eigenvalues ---   -0.00505   0.00013   0.00280   0.00932   0.01838
     Eigenvalues ---    0.25841   0.52922   0.85096   0.86397
 Eigenvectors required to have negative eigenvalues:
                          A4        A3        A2        A1        R2
   1                    0.67237  -0.44459   0.40093  -0.37340  -0.19130
                          D1        R3        R4        R1
   1                   -0.11590   0.00762   0.00060   0.00001
 RFO step:  Lambda0=9.564546717D-06 Lambda=-3.11089589D-06.
 Linear search not attempted -- option 19 set.
 Iteration  1 RMS(Cart)=  0.01338052 RMS(Int)=  0.00105082
 Iteration  2 RMS(Cart)=  0.00021018 RMS(Int)=  0.00000055
 Iteration  3 RMS(Cart)=  0.00000025 RMS(Int)=  0.00000000
 Variable       Old X    -DE/DX   Delta X   Delta X   Delta X     New X
                                 (Linear)    (Quad)   (Total)
    R1        2.25955   0.00003   0.00000   0.00004   0.00004   2.25959
    R2        4.77757   0.00008   0.00000  -0.02576  -0.02576   4.75180
    R3        1.81964  -0.00029   0.00000   0.00007   0.00007   1.81971
    R4        1.81746  -0.00009   0.00000  -0.00001  -0.00001   1.81745
    A1        1.80368   0.00009   0.00000  -0.00832  -0.00832   1.79537
    A2        1.58406  -0.00081   0.00000   0.02137   0.02137   1.60543
    A3        4.24230  -0.00038   0.00000  -0.03696  -0.03696   4.20534
    A4        5.85635  -0.00001   0.00000   0.01440   0.01440   5.87075
    D1       -1.04566   0.00001   0.00000  -0.00667  -0.00667  -1.05233
         Item               Value     Threshold  Converged?
 Maximum Force            0.000812     0.000450     NO 
 RMS     Force            0.000319     0.000300     NO 
 Maximum Displacement     0.021911     0.001800     NO 
 RMS     Displacement     0.013384     0.001200     NO 
 Predicted change in Energy= 3.235903D-06
 GradGradGradGradGradGradGradGradGradGradGradGradGradGradGradGradGradGrad

                          Input orientation:                          
 ---------------------------------------------------------------------
 Center     Atomic      Atomic             Coordinates (Angstroms)
 Number     Number       Type             X           Y           Z
 ---------------------------------------------------------------------
      1          8           0       -1.923404    1.684782   -0.116803
      2          8           0       -1.981214    0.490468   -0.121700
      3          1           0        0.338839   -0.185301    0.573736
      4          8           0        0.731562    0.256847   -0.186230
      5          1           0        1.677403    0.086648   -0.149003
 ---------------------------------------------------------------------
                    Distance matrix (angstroms):
                    1          2          3          4          5
     1  O    0.000000
     2  O    1.195723   0.000000
     3  H    3.015260   2.514546   0.000000
     4  O    3.015404   2.723582   0.962951   0.000000
     5  H    3.939654   3.680937   1.545335   0.961753   0.000000
 Stoichiometry    H2O3
 Framework group  C1[X(H2O3)]
 Deg. of freedom     9
 Full point group                 C1      NOp   1
 Largest Abelian subgroup         C1      NOp   1
 Largest concise Abelian subgroup C1      NOp   1
                         Standard orientation:                         
 ---------------------------------------------------------------------
 Center     Atomic      Atomic             Coordinates (Angstroms)
 Number     Number       Type             X           Y           Z
 ---------------------------------------------------------------------
      1          8           0        1.279438   -0.543765    0.035686
      2          8           0        0.935847    0.598459   -0.048118
      3          1           0       -1.477140    0.510291    0.653779
      4          8           0       -1.699627   -0.088436   -0.066846
      5          1           0       -2.648127   -0.240353   -0.019559
 ---------------------------------------------------------------------
 Rotational constants (GHZ):     44.1588959      5.2715250      4.7564373
 Standard basis: 6-31+G(d,p) (6D, 7F)
 There are    67 symmetry adapted basis functions of A   symmetry.
 Integral buffers will be    262144 words long.
 Raffenetti 2 integral format.
 Two-electron integral symmetry is turned on.
    67 basis functions,   110 primitive gaussians,    67 cartesian basis functions
    13 alpha electrons       13 beta electrons
       nuclear repulsion energy        66.4427732032 Hartrees.
 NAtoms=    5 NActive=    5 NUniq=    5 SFac= 7.50D-01 NAtFMM=   80 NAOKFM=F Big=F
 One-electron integrals computed using PRISM.
 NBasis=    67 RedAO= T  NBF=    67
 NBsUse=    67 1.00D-06 NBFU=    67
 Initial guess read from the read-write file.
 B after Tr=     0.000000    0.000000    0.000000
         Rot=    1.000000    0.000000    0.000000    0.000000 Ang=   0.00 deg.
 Initial guess orbital symmetries:
       Occupied  (A) (A) (A) (A) (A) (A) (A) (A) (A) (A) (A) (A)
                 (A)
       Virtual   (A) (A) (A) (A) (A) (A) (A) (A) (A) (A) (A) (A)
                 (A) (A) (A) (A) (A) (A) (A) (A) (A) (A) (A) (A)
                 (A) (A) (A) (A) (A) (A) (A) (A) (A) (A) (A) (A)
                 (A) (A) (A) (A) (A) (A) (A) (A) (A) (A) (A) (A)
                 (A) (A) (A) (A) (A) (A)
 Harris functional with IExCor= 1009 diagonalized for initial guess.
 ExpMin= 8.45D-02 ExpMax= 5.48D+03 ExpMxC= 8.25D+02 IAcc=2 IRadAn=         0 AccDes= 0.00D+00
 HarFok:  IExCor= 1009 AccDes= 0.00D+00 IRadAn=         0 IDoV= 1
 ScaDFX=  1.000000  1.000000  1.000000  1.000000
 FoFCou: FMM=F IPFlag=           0 FMFlag=      100000 FMFlg1=           0
         NFxFlg=           0 DoJE=T BraDBF=F KetDBF=T FulRan=T
         Omega=  0.000000  0.000000  1.000000  0.000000  0.000000 ICntrl=     500 IOpCl=  0
         NMat0=    1 NMatS0=    1 NMatT0=    0 NMatD0=    1 NMtDS0=    0 NMtDT0=    0
         I1Cent=           4 NGrid=           0.
 Petite list used in FoFCou.
 Requested convergence on RMS density matrix=1.00D-08 within 128 cycles.
 Requested convergence on MAX density matrix=1.00D-06.
 Requested convergence on             energy=1.00D-06.
 No special actions if energy rises.
 Keep R1 ints in memory in canonical form, NReq=3551234.
 Integral accuracy reduced to 1.0D-05 until final iterations.
 Initial convergence to 1.0D-05 achieved.  Increase integral accuracy.
 SCF Done:  E(RM062X) =  -226.603036113     A.U. after   19 cycles
             Convg  =    0.1546D-08             -V/T =  2.0081
 Calling FoFJK, ICntrl=      2127 FMM=F ISym2X=0 I1Cent= 0 IOpClX= 0 NMat=1 NMatS=1 NMatT=0.
 ***** Axes restored to original set *****
 -------------------------------------------------------------------
 Center     Atomic                   Forces (Hartrees/Bohr)
 Number     Number              X              Y              Z
 -------------------------------------------------------------------
      1        8          -0.000082230   -0.000027141   -0.000241400
      2        8           0.000097834   -0.000110976    0.000110936
      3        1           0.000751267    0.000052109    0.000114168
      4        8          -0.000465807    0.000435718   -0.000276283
      5        1          -0.000301064   -0.000349710    0.000292579
 -------------------------------------------------------------------
 Cartesian Forces:  Max     0.000751267 RMS     0.000312177

 GradGradGradGradGradGradGradGradGradGradGradGradGradGradGradGradGradGrad
 Berny optimization.
 Internal  Forces:  Max     0.001954128 RMS     0.000763566
 Search for a saddle point.
 Step number   4 out of a maximum of  100
 All quantities printed in internal units (Hartrees-Bohrs-Radians)
 Swaping is turned off.
 Update second derivatives using D2CorX and points    1    2    3    4
 The second derivative matrix:
                          R1        R2        R3        R4        A1
           R1           0.86169
           R2           0.00197   0.00785
           R3          -0.00141  -0.01516   0.52042
           R4          -0.00505  -0.00685  -0.01594   0.85165
           A1           0.00383   0.00736   0.01072   0.00030   0.00896
           A2           0.00136  -0.04812   0.04705   0.02143   0.01839
           A3           0.00004  -0.03298   0.02713   0.01290   0.00505
           A4           0.00116   0.00296  -0.00113  -0.00234   0.00231
           D1           0.00094  -0.00264  -0.00607  -0.00220   0.00132
                          A2        A3        A4        D1
           A2           0.21071
           A3           0.11842   0.07288
           A4          -0.01353  -0.00836   0.00419
           D1          -0.01810  -0.00791   0.00175   0.00317
     Eigenvalues ---   -0.01377   0.00073   0.00193   0.00654   0.01832
     Eigenvalues ---    0.27884   0.53382   0.85109   0.86404
 Eigenvectors required to have negative eigenvalues:
                          R2        A1        D1        A2        A3
   1                    0.77005  -0.45059   0.39054   0.16588   0.13135
                          A4        R3        R4        R1
   1                    0.08055   0.01427   0.00166  -0.00051
 RFO step:  Lambda0=1.322341902D-05 Lambda=-4.34381740D-05.
 Linear search not attempted -- option 19 set.
 Iteration  1 RMS(Cart)=  0.03850852 RMS(Int)=  0.01249756
 Iteration  2 RMS(Cart)=  0.00635229 RMS(Int)=  0.00079010
 Iteration  3 RMS(Cart)=  0.00055137 RMS(Int)=  0.00000460
 Iteration  4 RMS(Cart)=  0.00000204 RMS(Int)=  0.00000000
 Iteration  5 RMS(Cart)=  0.00000000 RMS(Int)=  0.00000000
 Variable       Old X    -DE/DX   Delta X   Delta X   Delta X     New X
                                 (Linear)    (Quad)   (Total)
    R1        2.25959   0.00004   0.00000  -0.00013  -0.00013   2.25946
    R2        4.75180   0.00009   0.00000   0.07130   0.07130   4.82310
    R3        1.81971  -0.00066   0.00000  -0.00045  -0.00045   1.81927
    R4        1.81745  -0.00022   0.00000   0.00003   0.00003   1.81748
    A1        1.79537   0.00013   0.00000   0.04434   0.04434   1.83970
    A2        1.60543  -0.00195   0.00000  -0.07052  -0.07052   1.53490
    A3        4.20534  -0.00096   0.00000   0.12412   0.12412   4.32946
    A4        5.87075   0.00001   0.00000  -0.04602  -0.04602   5.82473
    D1       -1.05233   0.00005   0.00000  -0.01240  -0.01240  -1.06473
         Item               Value     Threshold  Converged?
 Maximum Force            0.001954     0.000450     NO 
 RMS     Force            0.000764     0.000300     NO 
 Maximum Displacement     0.062075     0.001800     NO 
 RMS     Displacement     0.045160     0.001200     NO 
 Predicted change in Energy=-1.572467D-05
 GradGradGradGradGradGradGradGradGradGradGradGradGradGradGradGradGradGrad

                          Input orientation:                          
 ---------------------------------------------------------------------
 Center     Atomic      Atomic             Coordinates (Angstroms)
 Number     Number       Type             X           Y           Z
 ---------------------------------------------------------------------
      1          8           0       -1.947102    1.698927   -0.124427
      2          8           0       -1.965915    0.503446   -0.132024
      3          1           0        0.371687   -0.216148    0.597292
      4          8           0        0.716321    0.242191   -0.175995
      5          1           0        1.668194    0.105027   -0.164846
 ---------------------------------------------------------------------
                    Distance matrix (angstroms):
                    1          2          3          4          5
     1  O    0.000000
     2  O    1.195653   0.000000
     3  H    3.092761   2.552274   0.000000
     4  O    3.036208   2.695288   0.962715   0.000000
     5  H    3.951267   3.656031   1.537835   0.961769   0.000000
 Stoichiometry    H2O3
 Framework group  C1[X(H2O3)]
 Deg. of freedom     9
 Full point group                 C1      NOp   1
 Largest Abelian subgroup         C1      NOp   1
 Largest concise Abelian subgroup C1      NOp   1
                         Standard orientation:                         
 ---------------------------------------------------------------------
 Center     Atomic      Atomic             Coordinates (Angstroms)
 Number     Number       Type             X           Y           Z
 ---------------------------------------------------------------------
      1          8           0        1.306603   -0.530612    0.037898
      2          8           0        0.910847    0.594148   -0.050860
      3          1           0       -1.536277    0.510756    0.669372
      4          8           0       -1.695856   -0.091039   -0.064930
      5          1           0       -2.636478   -0.290738   -0.046240
 ---------------------------------------------------------------------
 Rotational constants (GHZ):     45.1319107      5.2542945      4.7556069
 Standard basis: 6-31+G(d,p) (6D, 7F)
 There are    67 symmetry adapted basis functions of A   symmetry.
 Integral buffers will be    262144 words long.
 Raffenetti 2 integral format.
 Two-electron integral symmetry is turned on.
    67 basis functions,   110 primitive gaussians,    67 cartesian basis functions
    13 alpha electrons       13 beta electrons
       nuclear repulsion energy        66.4452833584 Hartrees.
 NAtoms=    5 NActive=    5 NUniq=    5 SFac= 7.50D-01 NAtFMM=   80 NAOKFM=F Big=F
 One-electron integrals computed using PRISM.
 NBasis=    67 RedAO= T  NBF=    67
 NBsUse=    67 1.00D-06 NBFU=    67
 Initial guess read from the read-write file.
 B after Tr=     0.000000    0.000000    0.000000
         Rot=    1.000000    0.000000    0.000000    0.000000 Ang=   0.00 deg.
 Initial guess orbital symmetries:
       Occupied  (A) (A) (A) (A) (A) (A) (A) (A) (A) (A) (A) (A)
                 (A)
       Virtual   (A) (A) (A) (A) (A) (A) (A) (A) (A) (A) (A) (A)
                 (A) (A) (A) (A) (A) (A) (A) (A) (A) (A) (A) (A)
                 (A) (A) (A) (A) (A) (A) (A) (A) (A) (A) (A) (A)
                 (A) (A) (A) (A) (A) (A) (A) (A) (A) (A) (A) (A)
                 (A) (A) (A) (A) (A) (A)
 Harris functional with IExCor= 1009 diagonalized for initial guess.
 ExpMin= 8.45D-02 ExpMax= 5.48D+03 ExpMxC= 8.25D+02 IAcc=2 IRadAn=         0 AccDes= 0.00D+00
 HarFok:  IExCor= 1009 AccDes= 0.00D+00 IRadAn=         0 IDoV= 1
 ScaDFX=  1.000000  1.000000  1.000000  1.000000
 FoFCou: FMM=F IPFlag=           0 FMFlag=      100000 FMFlg1=           0
         NFxFlg=           0 DoJE=T BraDBF=F KetDBF=T FulRan=T
         Omega=  0.000000  0.000000  1.000000  0.000000  0.000000 ICntrl=     500 IOpCl=  0
         NMat0=    1 NMatS0=    1 NMatT0=    0 NMatD0=    1 NMtDS0=    0 NMtDT0=    0
         I1Cent=           4 NGrid=           0.
 Petite list used in FoFCou.
 Requested convergence on RMS density matrix=1.00D-08 within 128 cycles.
 Requested convergence on MAX density matrix=1.00D-06.
 Requested convergence on             energy=1.00D-06.
 No special actions if energy rises.
 Keep R1 ints in memory in canonical form, NReq=3551234.
 Integral accuracy reduced to 1.0D-05 until final iterations.
 Initial convergence to 1.0D-05 achieved.  Increase integral accuracy.
 SCF Done:  E(RM062X) =  -226.603049929     A.U. after   27 cycles
             Convg  =    0.8289D-08             -V/T =  2.0081
 Calling FoFJK, ICntrl=      2127 FMM=F ISym2X=0 I1Cent= 0 IOpClX= 0 NMat=1 NMatS=1 NMatT=0.
 ***** Axes restored to original set *****
 -------------------------------------------------------------------
 Center     Atomic                   Forces (Hartrees/Bohr)
 Number     Number              X              Y              Z
 -------------------------------------------------------------------
      1        8           0.000132143   -0.000077296   -0.000059039
      2        8          -0.000367892   -0.000078787   -0.000055972
      3        1          -0.000348890    0.000219063    0.000232521
      4        8           0.000401304   -0.000146422    0.000488350
      5        1           0.000183335    0.000083442   -0.000605860
 -------------------------------------------------------------------
 Cartesian Forces:  Max     0.000605860 RMS     0.000285657

 GradGradGradGradGradGradGradGradGradGradGradGradGradGradGradGradGradGrad
 Berny optimization.
 Internal  Forces:  Max     0.001533216 RMS     0.000610570
 Search for a saddle point.
 Step number   5 out of a maximum of  100
 All quantities printed in internal units (Hartrees-Bohrs-Radians)
 Swaping is turned off.
 Update second derivatives using D2CorX and points    1    2    3    4    5
 The second derivative matrix:
                          R1        R2        R3        R4        A1
           R1           0.86169
           R2           0.00196   0.00801
           R3          -0.00141  -0.01489   0.52063
           R4          -0.00505  -0.00676  -0.01588   0.85167
           A1           0.00398   0.00699   0.00840  -0.00042   0.01131
           A2           0.00126  -0.04709   0.04893   0.02200   0.01126
           A3           0.00019  -0.03286   0.02513   0.01230   0.00315
           A4           0.00104   0.00320   0.00074  -0.00175   0.00174
           D1           0.00090  -0.00251  -0.00562  -0.00207   0.00116
                          A2        A3        A4        D1
           A2           0.21935
           A3           0.11488   0.06691
           A4          -0.00852  -0.00538   0.00357
           D1          -0.01704  -0.00700   0.00162   0.00301
     Eigenvalues ---   -0.01176   0.00093   0.00280   0.00750   0.01833
     Eigenvalues ---    0.27907   0.53413   0.85111   0.86404
 Eigenvectors required to have negative eigenvalues:
                          R2        D1        A1        A3        A2
   1                    0.80897   0.38051  -0.33537   0.28812   0.06185
                          A4        R3        R4        R1
   1                   -0.03610   0.01275   0.00156  -0.00076
 RFO step:  Lambda0=1.955675082D-05 Lambda=-3.34927983D-05.
 Linear search not attempted -- option 19 set.
 Iteration  1 RMS(Cart)=  0.02601098 RMS(Int)=  0.00400255
 Iteration  2 RMS(Cart)=  0.00064076 RMS(Int)=  0.00001020
 Iteration  3 RMS(Cart)=  0.00000286 RMS(Int)=  0.00000000
 Iteration  4 RMS(Cart)=  0.00000000 RMS(Int)=  0.00000000
 Variable       Old X    -DE/DX   Delta X   Delta X   Delta X     New X
                                 (Linear)    (Quad)   (Total)
    R1        2.25946  -0.00004   0.00000   0.00012   0.00012   2.25957
    R2        4.82310   0.00008   0.00000  -0.03898  -0.03898   4.78412
    R3        1.81927   0.00056   0.00000   0.00022   0.00022   1.81949
    R4        1.81748   0.00017   0.00000  -0.00004  -0.00004   1.81744
    A1        1.83970  -0.00037   0.00000  -0.02928  -0.02928   1.81042
    A2        1.53490   0.00153   0.00000   0.03600   0.03600   1.57091
    A3        4.32946   0.00072   0.00000  -0.06725  -0.06725   4.26221
    A4        5.82473  -0.00004   0.00000   0.02372   0.02372   5.84845
    D1       -1.06473  -0.00005   0.00000  -0.00271  -0.00271  -1.06744
         Item               Value     Threshold  Converged?
 Maximum Force            0.001533     0.000450     NO 
 RMS     Force            0.000611     0.000300     NO 
 Maximum Displacement     0.038113     0.001800     NO 
 RMS     Displacement     0.026078     0.001200     NO 
 Predicted change in Energy=-7.071630D-06
 GradGradGradGradGradGradGradGradGradGradGradGradGradGradGradGradGradGrad

                          Input orientation:                          
 ---------------------------------------------------------------------
 Center     Atomic      Atomic             Coordinates (Angstroms)
 Number     Number       Type             X           Y           Z
 ---------------------------------------------------------------------
      1          8           0       -1.931550    1.690083   -0.117443
      2          8           0       -1.973949    0.495183   -0.129603
      3          1           0        0.353922   -0.195979    0.586324
      4          8           0        0.723080    0.250199   -0.182893
      5          1           0        1.671683    0.093957   -0.156384
 ---------------------------------------------------------------------
                    Distance matrix (angstroms):
                    1          2          3          4          5
     1  O    0.000000
     2  O    1.195715   0.000000
     3  H    3.045637   2.531648   0.000000
     4  O    3.020697   2.708657   0.962833   0.000000
     5  H    3.941120   3.667742   1.540186   0.961749   0.000000
 Stoichiometry    H2O3
 Framework group  C1[X(H2O3)]
 Deg. of freedom     9
 Full point group                 C1      NOp   1
 Largest Abelian subgroup         C1      NOp   1
 Largest concise Abelian subgroup C1      NOp   1
                         Standard orientation:                         
 ---------------------------------------------------------------------
 Center     Atomic      Atomic             Coordinates (Angstroms)
 Number     Number       Type             X           Y           Z
 ---------------------------------------------------------------------
      1          8           0        1.289378   -0.538450    0.036461
      2          8           0        0.924442    0.596991   -0.049147
      3          1           0       -1.502041    0.503858    0.666917
      4          8           0       -1.695891   -0.088848   -0.066684
      5          1           0       -2.641396   -0.261401   -0.031954
 ---------------------------------------------------------------------
 Rotational constants (GHZ):     44.5255578      5.2758337      4.7659426
 Standard basis: 6-31+G(d,p) (6D, 7F)
 There are    67 symmetry adapted basis functions of A   symmetry.
 Integral buffers will be    262144 words long.
 Raffenetti 2 integral format.
 Two-electron integral symmetry is turned on.
    67 basis functions,   110 primitive gaussians,    67 cartesian basis functions
    13 alpha electrons       13 beta electrons
       nuclear repulsion energy        66.4718573527 Hartrees.
 NAtoms=    5 NActive=    5 NUniq=    5 SFac= 7.50D-01 NAtFMM=   80 NAOKFM=F Big=F
 One-electron integrals computed using PRISM.
 NBasis=    67 RedAO= T  NBF=    67
 NBsUse=    67 1.00D-06 NBFU=    67
 Initial guess read from the read-write file.
 B after Tr=     0.000000    0.000000    0.000000
         Rot=    1.000000    0.000000    0.000000    0.000000 Ang=   0.00 deg.
 Initial guess orbital symmetries:
       Occupied  (A) (A) (A) (A) (A) (A) (A) (A) (A) (A) (A) (A)
                 (A)
       Virtual   (A) (A) (A) (A) (A) (A) (A) (A) (A) (A) (A) (A)
                 (A) (A) (A) (A) (A) (A) (A) (A) (A) (A) (A) (A)
                 (A) (A) (A) (A) (A) (A) (A) (A) (A) (A) (A) (A)
                 (A) (A) (A) (A) (A) (A) (A) (A) (A) (A) (A) (A)
                 (A) (A) (A) (A) (A) (A)
 Harris functional with IExCor= 1009 diagonalized for initial guess.
 ExpMin= 8.45D-02 ExpMax= 5.48D+03 ExpMxC= 8.25D+02 IAcc=2 IRadAn=         0 AccDes= 0.00D+00
 HarFok:  IExCor= 1009 AccDes= 0.00D+00 IRadAn=         0 IDoV= 1
 ScaDFX=  1.000000  1.000000  1.000000  1.000000
 FoFCou: FMM=F IPFlag=           0 FMFlag=      100000 FMFlg1=           0
         NFxFlg=           0 DoJE=T BraDBF=F KetDBF=T FulRan=T
         Omega=  0.000000  0.000000  1.000000  0.000000  0.000000 ICntrl=     500 IOpCl=  0
         NMat0=    1 NMatS0=    1 NMatT0=    0 NMatD0=    1 NMtDS0=    0 NMtDT0=    0
         I1Cent=           4 NGrid=           0.
 Petite list used in FoFCou.
 Requested convergence on RMS density matrix=1.00D-08 within 128 cycles.
 Requested convergence on MAX density matrix=1.00D-06.
 Requested convergence on             energy=1.00D-06.
 No special actions if energy rises.
 Keep R1 ints in memory in canonical form, NReq=3551234.
 Integral accuracy reduced to 1.0D-05 until final iterations.
 Initial convergence to 1.0D-05 achieved.  Increase integral accuracy.
 SCF Done:  E(RM062X) =  -226.603053566     A.U. after   20 cycles
             Convg  =    0.3124D-08             -V/T =  2.0081
 Calling FoFJK, ICntrl=      2127 FMM=F ISym2X=0 I1Cent= 0 IOpClX= 0 NMat=1 NMatS=1 NMatT=0.
 ***** Axes restored to original set *****
 -------------------------------------------------------------------
 Center     Atomic                   Forces (Hartrees/Bohr)
 Number     Number              X              Y              Z
 -------------------------------------------------------------------
      1        8          -0.000024365   -0.000062965   -0.000197869
      2        8          -0.000113836   -0.000079505    0.000073728
      3        1           0.000018077    0.000128780    0.000161671
      4        8           0.000070577    0.000047440    0.000286778
      5        1           0.000049546   -0.000033750   -0.000324308
 -------------------------------------------------------------------
 Cartesian Forces:  Max     0.000324308 RMS     0.000143694

 GradGradGradGradGradGradGradGradGradGradGradGradGradGradGradGradGradGrad
 Berny optimization.
 Internal  Forces:  Max     0.000378590 RMS     0.000159039
 Search for a saddle point.
 Step number   6 out of a maximum of  100
 All quantities printed in internal units (Hartrees-Bohrs-Radians)
 Swaping is turned off.
 Update second derivatives using D2CorX and points    1    2    3    4    5
                                                      6
 The second derivative matrix:
                          R1        R2        R3        R4        A1
           R1           0.86169
           R2           0.00165   0.01027
           R3          -0.00143  -0.00565   0.52154
           R4          -0.00506  -0.00370  -0.01558   0.85176
           A1           0.00428   0.00443   0.00183  -0.00256   0.01458
           A2           0.00117  -0.02170   0.05137   0.02278  -0.00712
           A3           0.00006  -0.01928   0.02949   0.01374  -0.00684
           A4           0.00054   0.00111   0.01108   0.00161   0.00124
           D1           0.00068  -0.00121   0.00141   0.00025  -0.00048
                          A2        A3        A4        D1
           A2           0.22600
           A3           0.12670   0.07761
           A4           0.02019   0.00849  -0.00353
           D1           0.00186   0.00304  -0.00092   0.00342
     Eigenvalues ---   -0.00620   0.00001   0.00320   0.00945   0.01844
     Eigenvalues ---    0.28628   0.53685   0.85123   0.86408
 Eigenvectors required to have negative eigenvalues:
                          A4        R2        A2        D1        A3
   1                    0.97240  -0.14662  -0.13803   0.07767   0.07441
                          A1        R3        R4        R1
   1                   -0.04648  -0.01277  -0.00037   0.00000
 RFO step:  Lambda0=9.820996444D-07 Lambda=-5.45829010D-05.
 Linear search not attempted -- option 19 set.
 Maximum step size (   0.300) exceeded in Quadratic search.
    -- Step size scaled by   0.323
 Iteration  1 RMS(Cart)=  0.00647701 RMS(Int)=  0.09022785
 Iteration  2 RMS(Cart)=  0.00051718 RMS(Int)=  0.08945827
 Iteration  3 RMS(Cart)=  0.00050370 RMS(Int)=  0.08870870
 Iteration  4 RMS(Cart)=  0.00049081 RMS(Int)=  0.08797827
 Iteration  5 RMS(Cart)=  0.00047847 RMS(Int)=  0.08726616
 Iteration  6 RMS(Cart)=  0.00046666 RMS(Int)=  0.08657158
 Iteration  7 RMS(Cart)=  0.00045534 RMS(Int)=  0.08589381
 Iteration  8 RMS(Cart)=  0.00044449 RMS(Int)=  0.08523216
 Iteration  9 RMS(Cart)=  0.00043407 RMS(Int)=  0.08458599
 Iteration 10 RMS(Cart)=  0.00042406 RMS(Int)=  0.08395468
 Iteration 11 RMS(Cart)=  0.00041444 RMS(Int)=  0.08333765
 Iteration 12 RMS(Cart)=  0.00040519 RMS(Int)=  0.08273437
 Iteration 13 RMS(Cart)=  0.00039629 RMS(Int)=  0.08214431
 Iteration 14 RMS(Cart)=  0.00038772 RMS(Int)=  0.08156699
 Iteration 15 RMS(Cart)=  0.00037946 RMS(Int)=  0.08100193
 Iteration 16 RMS(Cart)=  0.00037150 RMS(Int)=  0.08044871
 Iteration 17 RMS(Cart)=  0.00036382 RMS(Int)=  0.07990691
 Iteration 18 RMS(Cart)=  0.00035641 RMS(Int)=  0.07937611
 Iteration 19 RMS(Cart)=  0.00034925 RMS(Int)=  0.07885596
 Iteration 20 RMS(Cart)=  0.00034233 RMS(Int)=  0.07834609
 Iteration 21 RMS(Cart)=  0.00033565 RMS(Int)=  0.07784616
 Iteration 22 RMS(Cart)=  0.00032918 RMS(Int)=  0.07735583
 Iteration 23 RMS(Cart)=  0.00032292 RMS(Int)=  0.07687481
 Iteration 24 RMS(Cart)=  0.00031687 RMS(Int)=  0.07640278
 Iteration 25 RMS(Cart)=  0.00031101 RMS(Int)=  0.07593948
 Iteration 26 RMS(Cart)=  0.00030532 RMS(Int)=  0.07548462
 Iteration 27 RMS(Cart)=  0.00029982 RMS(Int)=  0.07503795
 Iteration 28 RMS(Cart)=  0.00029448 RMS(Int)=  0.07459922
 Iteration 29 RMS(Cart)=  0.00028930 RMS(Int)=  0.07416819
 Iteration 30 RMS(Cart)=  0.00028427 RMS(Int)=  0.07374463
 Iteration 31 RMS(Cart)=  0.00027939 RMS(Int)=  0.07332833
 Iteration 32 RMS(Cart)=  0.00027466 RMS(Int)=  0.07291908
 Iteration 33 RMS(Cart)=  0.00027005 RMS(Int)=  0.07251667
 Iteration 34 RMS(Cart)=  0.00026558 RMS(Int)=  0.07212091
 Iteration 35 RMS(Cart)=  0.00026123 RMS(Int)=  0.07173163
 Iteration 36 RMS(Cart)=  0.00025700 RMS(Int)=  0.07134863
 Iteration 37 RMS(Cart)=  0.00025289 RMS(Int)=  0.07097175
 Iteration 38 RMS(Cart)=  0.00024889 RMS(Int)=  0.07060082
 Iteration 39 RMS(Cart)=  0.00024499 RMS(Int)=  0.07023569
 Iteration 40 RMS(Cart)=  0.00024120 RMS(Int)=  0.06987621
 Iteration 41 RMS(Cart)=  0.00023750 RMS(Int)=  0.06952222
 Iteration 42 RMS(Cart)=  0.00023390 RMS(Int)=  0.06917358
 Iteration 43 RMS(Cart)=  0.00023040 RMS(Int)=  0.06883017
 Iteration 44 RMS(Cart)=  0.00022698 RMS(Int)=  0.06849184
 Iteration 45 RMS(Cart)=  0.00022364 RMS(Int)=  0.06815848
 Iteration 46 RMS(Cart)=  0.00022039 RMS(Int)=  0.06782995
 Iteration 47 RMS(Cart)=  0.00021722 RMS(Int)=  0.06750614
 Iteration 48 RMS(Cart)=  0.00021412 RMS(Int)=  0.06718694
 Iteration 49 RMS(Cart)=  0.00021110 RMS(Int)=  0.06687224
 Iteration 50 RMS(Cart)=  0.00020815 RMS(Int)=  0.06656192
 Iteration 51 RMS(Cart)=  0.00020527 RMS(Int)=  0.06625590
 Iteration 52 RMS(Cart)=  0.00020246 RMS(Int)=  0.06595406
 Iteration 53 RMS(Cart)=  0.00019971 RMS(Int)=  0.06565631
 Iteration 54 RMS(Cart)=  0.00019702 RMS(Int)=  0.06536256
 Iteration 55 RMS(Cart)=  0.00019440 RMS(Int)=  0.06507271
 Iteration 56 RMS(Cart)=  0.00019183 RMS(Int)=  0.06478669
 Iteration 57 RMS(Cart)=  0.00018932 RMS(Int)=  0.06450440
 Iteration 58 RMS(Cart)=  0.00018687 RMS(Int)=  0.06422577
 Iteration 59 RMS(Cart)=  0.00018447 RMS(Int)=  0.06395071
 Iteration 60 RMS(Cart)=  0.00018212 RMS(Int)=  0.06367914
 Iteration 61 RMS(Cart)=  0.00017982 RMS(Int)=  0.06341100
 Iteration 62 RMS(Cart)=  0.00017757 RMS(Int)=  0.06314621
 Iteration 63 RMS(Cart)=  0.00017537 RMS(Int)=  0.06288470
 Iteration 64 RMS(Cart)=  0.00017321 RMS(Int)=  0.06262641
 Iteration 65 RMS(Cart)=  0.00017110 RMS(Int)=  0.06237125
 Iteration 66 RMS(Cart)=  0.00016903 RMS(Int)=  0.06211918
 Iteration 67 RMS(Cart)=  0.00016700 RMS(Int)=  0.06187013
 Iteration 68 RMS(Cart)=  0.00016501 RMS(Int)=  0.06162403
 Iteration 69 RMS(Cart)=  0.00016307 RMS(Int)=  0.06138083
 Iteration 70 RMS(Cart)=  0.00016116 RMS(Int)=  0.06114048
 Iteration 71 RMS(Cart)=  0.00015929 RMS(Int)=  0.06090291
 Iteration 72 RMS(Cart)=  0.00015745 RMS(Int)=  0.06066807
 Iteration 73 RMS(Cart)=  0.00015565 RMS(Int)=  0.06043591
 Iteration 74 RMS(Cart)=  0.00015389 RMS(Int)=  0.06020638
 Iteration 75 RMS(Cart)=  0.00015216 RMS(Int)=  0.05997942
 Iteration 76 RMS(Cart)=  0.00015046 RMS(Int)=  0.05975500
 Iteration 77 RMS(Cart)=  0.00014880 RMS(Int)=  0.05953305
 Iteration 78 RMS(Cart)=  0.00014716 RMS(Int)=  0.05931355
 Iteration 79 RMS(Cart)=  0.00014555 RMS(Int)=  0.05909643
 Iteration 80 RMS(Cart)=  0.00014398 RMS(Int)=  0.05888166
 Iteration 81 RMS(Cart)=  0.00014243 RMS(Int)=  0.05866919
 Iteration 82 RMS(Cart)=  0.00014091 RMS(Int)=  0.05845899
 Iteration 83 RMS(Cart)=  0.00013942 RMS(Int)=  0.05825101
 Iteration 84 RMS(Cart)=  0.00013795 RMS(Int)=  0.05804521
 Iteration 85 RMS(Cart)=  0.00013651 RMS(Int)=  0.05784156
 Iteration 86 RMS(Cart)=  0.00013510 RMS(Int)=  0.05764002
 Iteration 87 RMS(Cart)=  0.00013371 RMS(Int)=  0.05744054
 Iteration 88 RMS(Cart)=  0.00013234 RMS(Int)=  0.05724311
 Iteration 89 RMS(Cart)=  0.00013100 RMS(Int)=  0.05704767
 Iteration 90 RMS(Cart)=  0.00012968 RMS(Int)=  0.05685419
 Iteration 91 RMS(Cart)=  0.00012838 RMS(Int)=  0.05666266
 Iteration 92 RMS(Cart)=  0.00012711 RMS(Int)=  0.05647302
 Iteration 93 RMS(Cart)=  0.00012585 RMS(Int)=  0.05628525
 Iteration 94 RMS(Cart)=  0.00012462 RMS(Int)=  0.05609932
 Iteration 95 RMS(Cart)=  0.00012341 RMS(Int)=  0.05591519
 Iteration 96 RMS(Cart)=  0.00012221 RMS(Int)=  0.05573285
 Iteration 97 RMS(Cart)=  0.00012104 RMS(Int)=  0.05555225
 Iteration 98 RMS(Cart)=  0.00011988 RMS(Int)=  0.05537338
 Iteration 99 RMS(Cart)=  0.00011875 RMS(Int)=  0.05519620
 Iteration100 RMS(Cart)=  0.00011763 RMS(Int)=  0.05502069
 New curvilinear step not converged.
 Iteration  1 RMS(Cart)=  0.00604482 RMS(Int)=  0.08099679
 Iteration  2 RMS(Cart)=  0.00041591 RMS(Int)=  0.08037709
 Iteration  3 RMS(Cart)=  0.00040612 RMS(Int)=  0.07977194
 Iteration  4 RMS(Cart)=  0.00039671 RMS(Int)=  0.07918078
 Iteration  5 RMS(Cart)=  0.00038768 RMS(Int)=  0.07860305
 Iteration  6 RMS(Cart)=  0.00037900 RMS(Int)=  0.07803823
 Iteration  7 RMS(Cart)=  0.00037065 RMS(Int)=  0.07748582
 Iteration  8 RMS(Cart)=  0.00036262 RMS(Int)=  0.07694537
 Iteration  9 RMS(Cart)=  0.00035488 RMS(Int)=  0.07641641
 Iteration 10 RMS(Cart)=  0.00034743 RMS(Int)=  0.07589855
 Iteration 11 RMS(Cart)=  0.00034024 RMS(Int)=  0.07539137
 Iteration 12 RMS(Cart)=  0.00033331 RMS(Int)=  0.07489451
 Iteration 13 RMS(Cart)=  0.00032662 RMS(Int)=  0.07440761
 Iteration 14 RMS(Cart)=  0.00032015 RMS(Int)=  0.07393032
 Iteration 15 RMS(Cart)=  0.00031391 RMS(Int)=  0.07346232
 Iteration 16 RMS(Cart)=  0.00030787 RMS(Int)=  0.07300331
 Iteration 17 RMS(Cart)=  0.00030204 RMS(Int)=  0.07255298
 Iteration 18 RMS(Cart)=  0.00029639 RMS(Int)=  0.07211106
 Iteration 19 RMS(Cart)=  0.00029092 RMS(Int)=  0.07167728
 Iteration 20 RMS(Cart)=  0.00028562 RMS(Int)=  0.07125138
 Iteration 21 RMS(Cart)=  0.00028049 RMS(Int)=  0.07083312
 Iteration 22 RMS(Cart)=  0.00027551 RMS(Int)=  0.07042227
 Iteration 23 RMS(Cart)=  0.00027068 RMS(Int)=  0.07001860
 Iteration 24 RMS(Cart)=  0.00026600 RMS(Int)=  0.06962190
 Iteration 25 RMS(Cart)=  0.00026146 RMS(Int)=  0.06923197
 Iteration 26 RMS(Cart)=  0.00025705 RMS(Int)=  0.06884860
 Iteration 27 RMS(Cart)=  0.00025276 RMS(Int)=  0.06847161
 Iteration 28 RMS(Cart)=  0.00024860 RMS(Int)=  0.06810081
 Iteration 29 RMS(Cart)=  0.00024455 RMS(Int)=  0.06773604
 Iteration 30 RMS(Cart)=  0.00024062 RMS(Int)=  0.06737713
 Iteration 31 RMS(Cart)=  0.00023679 RMS(Int)=  0.06702392
 Iteration 32 RMS(Cart)=  0.00023307 RMS(Int)=  0.06667625
 Iteration 33 RMS(Cart)=  0.00022945 RMS(Int)=  0.06633397
 Iteration 34 RMS(Cart)=  0.00022592 RMS(Int)=  0.06599695
 Iteration 35 RMS(Cart)=  0.00022248 RMS(Int)=  0.06566505
 Iteration 36 RMS(Cart)=  0.00021914 RMS(Int)=  0.06533812
 Iteration 37 RMS(Cart)=  0.00021588 RMS(Int)=  0.06501606
 Iteration 38 RMS(Cart)=  0.00021270 RMS(Int)=  0.06469873
 Iteration 39 RMS(Cart)=  0.00020960 RMS(Int)=  0.06438601
 Iteration 40 RMS(Cart)=  0.00020658 RMS(Int)=  0.06407780
 Iteration 41 RMS(Cart)=  0.00020363 RMS(Int)=  0.06377397
 Iteration 42 RMS(Cart)=  0.00020075 RMS(Int)=  0.06347443
 Iteration 43 RMS(Cart)=  0.00019795 RMS(Int)=  0.06317908
 Iteration 44 RMS(Cart)=  0.00019520 RMS(Int)=  0.06288780
 Iteration 45 RMS(Cart)=  0.00019253 RMS(Int)=  0.06260052
 Iteration 46 RMS(Cart)=  0.00018991 RMS(Int)=  0.06231713
 Iteration 47 RMS(Cart)=  0.00018736 RMS(Int)=  0.06203754
 Iteration 48 RMS(Cart)=  0.00018486 RMS(Int)=  0.06176167
 Iteration 49 RMS(Cart)=  0.00018242 RMS(Int)=  0.06148944
 Iteration 50 RMS(Cart)=  0.00018004 RMS(Int)=  0.06122076
 Iteration 51 RMS(Cart)=  0.00017771 RMS(Int)=  0.06095555
 Iteration 52 RMS(Cart)=  0.00017543 RMS(Int)=  0.06069374
 Iteration 53 RMS(Cart)=  0.00017320 RMS(Int)=  0.06043525
 Iteration 54 RMS(Cart)=  0.00017101 RMS(Int)=  0.06018002
 Iteration 55 RMS(Cart)=  0.00016888 RMS(Int)=  0.05992797
 Iteration 56 RMS(Cart)=  0.00016679 RMS(Int)=  0.05967904
 Iteration 57 RMS(Cart)=  0.00016474 RMS(Int)=  0.05943315
 Iteration 58 RMS(Cart)=  0.00016274 RMS(Int)=  0.05919025
 Iteration 59 RMS(Cart)=  0.00016077 RMS(Int)=  0.05895028
 Iteration 60 RMS(Cart)=  0.00015885 RMS(Int)=  0.05871318
 Iteration 61 RMS(Cart)=  0.00015697 RMS(Int)=  0.05847888
 Iteration 62 RMS(Cart)=  0.00015512 RMS(Int)=  0.05824733
 Iteration 63 RMS(Cart)=  0.00015331 RMS(Int)=  0.05801848
 Iteration 64 RMS(Cart)=  0.00015154 RMS(Int)=  0.05779228
 Iteration 65 RMS(Cart)=  0.00014980 RMS(Int)=  0.05756866
 Iteration 66 RMS(Cart)=  0.00014809 RMS(Int)=  0.05734759
 Iteration 67 RMS(Cart)=  0.00014642 RMS(Int)=  0.05712900
 Iteration 68 RMS(Cart)=  0.00014478 RMS(Int)=  0.05691287
 Iteration 69 RMS(Cart)=  0.00014317 RMS(Int)=  0.05669913
 Iteration 70 RMS(Cart)=  0.00014159 RMS(Int)=  0.05648775
 Iteration 71 RMS(Cart)=  0.00014004 RMS(Int)=  0.05627867
 Iteration 72 RMS(Cart)=  0.00013852 RMS(Int)=  0.05607186
 Iteration 73 RMS(Cart)=  0.00013703 RMS(Int)=  0.05586728
 Iteration 74 RMS(Cart)=  0.00013557 RMS(Int)=  0.05566488
 Iteration 75 RMS(Cart)=  0.00013413 RMS(Int)=  0.05546463
 Iteration 76 RMS(Cart)=  0.00013271 RMS(Int)=  0.05526648
 Iteration 77 RMS(Cart)=  0.00013133 RMS(Int)=  0.05507040
 Iteration 78 RMS(Cart)=  0.00012996 RMS(Int)=  0.05487636
 Iteration 79 RMS(Cart)=  0.00012862 RMS(Int)=  0.05468431
 Iteration 80 RMS(Cart)=  0.00012731 RMS(Int)=  0.05449423
 Iteration 81 RMS(Cart)=  0.00012601 RMS(Int)=  0.05430607
 Iteration 82 RMS(Cart)=  0.00012474 RMS(Int)=  0.05411981
 Iteration 83 RMS(Cart)=  0.00012349 RMS(Int)=  0.05393541
 Iteration 84 RMS(Cart)=  0.00012227 RMS(Int)=  0.05375284
 Iteration 85 RMS(Cart)=  0.00012106 RMS(Int)=  0.05357208
 Iteration 86 RMS(Cart)=  0.00011987 RMS(Int)=  0.05339308
 Iteration 87 RMS(Cart)=  0.00011870 RMS(Int)=  0.05321583
 Iteration 88 RMS(Cart)=  0.00011755 RMS(Int)=  0.05304029
 Iteration 89 RMS(Cart)=  0.00011642 RMS(Int)=  0.05286643
 Iteration 90 RMS(Cart)=  0.00011531 RMS(Int)=  0.05269423
 Iteration 91 RMS(Cart)=  0.00011422 RMS(Int)=  0.05252366
 Iteration 92 RMS(Cart)=  0.00011314 RMS(Int)=  0.05235470
 Iteration 93 RMS(Cart)=  0.00011208 RMS(Int)=  0.05218731
 Iteration 94 RMS(Cart)=  0.00011104 RMS(Int)=  0.05202148
 Iteration 95 RMS(Cart)=  0.00011002 RMS(Int)=  0.05185718
 Iteration 96 RMS(Cart)=  0.00010901 RMS(Int)=  0.05169439
 Iteration 97 RMS(Cart)=  0.00010801 RMS(Int)=  0.05153308
 Iteration 98 RMS(Cart)=  0.00010703 RMS(Int)=  0.05137322
 Iteration 99 RMS(Cart)=  0.00010607 RMS(Int)=  0.05121481
 Iteration100 RMS(Cart)=  0.00010512 RMS(Int)=  0.05105781
 New curvilinear step not converged.
 Iteration  1 RMS(Cart)=  0.00537317 RMS(Int)=  0.07199747
 Iteration  2 RMS(Cart)=  0.00060431 RMS(Int)=  0.07109711
 Iteration  3 RMS(Cart)=  0.00058106 RMS(Int)=  0.07023132
 Iteration  4 RMS(Cart)=  0.00055928 RMS(Int)=  0.06939792
 Iteration  5 RMS(Cart)=  0.00053884 RMS(Int)=  0.06859493
 Iteration  6 RMS(Cart)=  0.00051962 RMS(Int)=  0.06782053
 Iteration  7 RMS(Cart)=  0.00050153 RMS(Int)=  0.06707305
 Iteration  8 RMS(Cart)=  0.00048447 RMS(Int)=  0.06635095
 Iteration  9 RMS(Cart)=  0.00046836 RMS(Int)=  0.06565281
 Iteration 10 RMS(Cart)=  0.00045314 RMS(Int)=  0.06497732
 Iteration 11 RMS(Cart)=  0.00043872 RMS(Int)=  0.06432329
 Iteration 12 RMS(Cart)=  0.00042506 RMS(Int)=  0.06368959
 Iteration 13 RMS(Cart)=  0.00041210 RMS(Int)=  0.06307517
 Iteration 14 RMS(Cart)=  0.00039979 RMS(Int)=  0.06247908
 Iteration 15 RMS(Cart)=  0.00038809 RMS(Int)=  0.06190041
 Iteration 16 RMS(Cart)=  0.00037695 RMS(Int)=  0.06133833
 Iteration 17 RMS(Cart)=  0.00036633 RMS(Int)=  0.06079206
 Iteration 18 RMS(Cart)=  0.00035621 RMS(Int)=  0.06026086
 Iteration 19 RMS(Cart)=  0.00034655 RMS(Int)=  0.05974404
 Iteration 20 RMS(Cart)=  0.00033732 RMS(Int)=  0.05924097
 Iteration 21 RMS(Cart)=  0.00032849 RMS(Int)=  0.05875104
 Iteration 22 RMS(Cart)=  0.00032005 RMS(Int)=  0.05827368
 Iteration 23 RMS(Cart)=  0.00031196 RMS(Int)=  0.05780838
 Iteration 24 RMS(Cart)=  0.00030421 RMS(Int)=  0.05735461
 Iteration 25 RMS(Cart)=  0.00029678 RMS(Int)=  0.05691191
 Iteration 26 RMS(Cart)=  0.00028964 RMS(Int)=  0.05647985
 Iteration 27 RMS(Cart)=  0.00028279 RMS(Int)=  0.05605798
 Iteration 28 RMS(Cart)=  0.00027621 RMS(Int)=  0.05564592
 Iteration 29 RMS(Cart)=  0.00026988 RMS(Int)=  0.05524329
 Iteration 30 RMS(Cart)=  0.00026379 RMS(Int)=  0.05484974
 Iteration 31 RMS(Cart)=  0.00025793 RMS(Int)=  0.05446492
 Iteration 32 RMS(Cart)=  0.00025228 RMS(Int)=  0.05408851
 Iteration 33 RMS(Cart)=  0.00024684 RMS(Int)=  0.05372022
 Iteration 34 RMS(Cart)=  0.00024159 RMS(Int)=  0.05335975
 Iteration 35 RMS(Cart)=  0.00023652 RMS(Int)=  0.05300682
 Iteration 36 RMS(Cart)=  0.00023163 RMS(Int)=  0.05266119
 Iteration 37 RMS(Cart)=  0.00022691 RMS(Int)=  0.05232259
 Iteration 38 RMS(Cart)=  0.00022235 RMS(Int)=  0.05199079
 Iteration 39 RMS(Cart)=  0.00021793 RMS(Int)=  0.05166557
 Iteration 40 RMS(Cart)=  0.00021367 RMS(Int)=  0.05134670
 Iteration 41 RMS(Cart)=  0.00020954 RMS(Int)=  0.05103399
 Iteration 42 RMS(Cart)=  0.00020554 RMS(Int)=  0.05072724
 Iteration 43 RMS(Cart)=  0.00020167 RMS(Int)=  0.05042625
 Iteration 44 RMS(Cart)=  0.00019792 RMS(Int)=  0.05013085
 Iteration 45 RMS(Cart)=  0.00019429 RMS(Int)=  0.04984087
 Iteration 46 RMS(Cart)=  0.00019077 RMS(Int)=  0.04955614
 Iteration 47 RMS(Cart)=  0.00018735 RMS(Int)=  0.04927651
 Iteration 48 RMS(Cart)=  0.00018403 RMS(Int)=  0.04900182
 Iteration 49 RMS(Cart)=  0.00018081 RMS(Int)=  0.04873193
 Iteration 50 RMS(Cart)=  0.00017769 RMS(Int)=  0.04846670
 Iteration 51 RMS(Cart)=  0.00017465 RMS(Int)=  0.04820599
 Iteration 52 RMS(Cart)=  0.00017170 RMS(Int)=  0.04794968
 Iteration 53 RMS(Cart)=  0.00016884 RMS(Int)=  0.04769765
 Iteration 54 RMS(Cart)=  0.00016605 RMS(Int)=  0.04744978
 Iteration 55 RMS(Cart)=  0.00016334 RMS(Int)=  0.04720594
 Iteration 56 RMS(Cart)=  0.00016070 RMS(Int)=  0.04696604
 Iteration 57 RMS(Cart)=  0.00015813 RMS(Int)=  0.04672997
 Iteration 58 RMS(Cart)=  0.00015563 RMS(Int)=  0.04649763
 Iteration 59 RMS(Cart)=  0.00015320 RMS(Int)=  0.04626891
 Iteration 60 RMS(Cart)=  0.00015083 RMS(Int)=  0.04604373
 Iteration 61 RMS(Cart)=  0.00014852 RMS(Int)=  0.04582199
 Iteration 62 RMS(Cart)=  0.00014627 RMS(Int)=  0.04560361
 Iteration 63 RMS(Cart)=  0.00014408 RMS(Int)=  0.04538849
 Iteration 64 RMS(Cart)=  0.00014194 RMS(Int)=  0.04517657
 Iteration 65 RMS(Cart)=  0.00013985 RMS(Int)=  0.04496776
 Iteration 66 RMS(Cart)=  0.00013782 RMS(Int)=  0.04476199
 Iteration 67 RMS(Cart)=  0.00013583 RMS(Int)=  0.04455918
 Iteration 68 RMS(Cart)=  0.00013389 RMS(Int)=  0.04435926
 Iteration 69 RMS(Cart)=  0.00013200 RMS(Int)=  0.04416216
 Iteration 70 RMS(Cart)=  0.00013015 RMS(Int)=  0.04396782
 Iteration 71 RMS(Cart)=  0.00012835 RMS(Int)=  0.04377617
 Iteration 72 RMS(Cart)=  0.00012658 RMS(Int)=  0.04358715
 Iteration 73 RMS(Cart)=  0.00012486 RMS(Int)=  0.04340069
 Iteration 74 RMS(Cart)=  0.00012318 RMS(Int)=  0.04321675
 Iteration 75 RMS(Cart)=  0.00012153 RMS(Int)=  0.04303527
 Iteration 76 RMS(Cart)=  0.00011992 RMS(Int)=  0.04285619
 Iteration 77 RMS(Cart)=  0.00011835 RMS(Int)=  0.04267945
 Iteration 78 RMS(Cart)=  0.00011681 RMS(Int)=  0.04250501
 Iteration 79 RMS(Cart)=  0.00011531 RMS(Int)=  0.04233281
 Iteration 80 RMS(Cart)=  0.00011383 RMS(Int)=  0.04216282
 Iteration 81 RMS(Cart)=  0.00011239 RMS(Int)=  0.04199497
 Iteration 82 RMS(Cart)=  0.00011098 RMS(Int)=  0.04182923
 Iteration 83 RMS(Cart)=  0.00010960 RMS(Int)=  0.04166555
 Iteration 84 RMS(Cart)=  0.00010824 RMS(Int)=  0.04150389
 Iteration 85 RMS(Cart)=  0.00010692 RMS(Int)=  0.04134421
 Iteration 86 RMS(Cart)=  0.00010562 RMS(Int)=  0.04118647
 Iteration 87 RMS(Cart)=  0.00010435 RMS(Int)=  0.04103062
 Iteration 88 RMS(Cart)=  0.00010310 RMS(Int)=  0.04087663
 Iteration 89 RMS(Cart)=  0.00010188 RMS(Int)=  0.04072447
 Iteration 90 RMS(Cart)=  0.00010068 RMS(Int)=  0.04057409
 Iteration 91 RMS(Cart)=  0.00009951 RMS(Int)=  0.04042546
 Iteration 92 RMS(Cart)=  0.00009836 RMS(Int)=  0.04027855
 Iteration 93 RMS(Cart)=  0.00009723 RMS(Int)=  0.04013332
 Iteration 94 RMS(Cart)=  0.00009612 RMS(Int)=  0.03998974
 Iteration 95 RMS(Cart)=  0.00009504 RMS(Int)=  0.03984779
 Iteration 96 RMS(Cart)=  0.00009397 RMS(Int)=  0.03970742
 Iteration 97 RMS(Cart)=  0.00009293 RMS(Int)=  0.03956862
 Iteration 98 RMS(Cart)=  0.00009190 RMS(Int)=  0.03943134
 Iteration 99 RMS(Cart)=  0.00009090 RMS(Int)=  0.03929557
 Iteration100 RMS(Cart)=  0.00008991 RMS(Int)=  0.03916127
 New curvilinear step not converged.
 Iteration  1 RMS(Cart)=  0.02622311 RMS(Int)=  0.03118292
 Iteration  2 RMS(Cart)=  0.02025311 RMS(Int)=  0.00287720
 Iteration  3 RMS(Cart)=  0.00053043 RMS(Int)=  0.00003932
 Iteration  4 RMS(Cart)=  0.00002901 RMS(Int)=  0.00000001
 Iteration  5 RMS(Cart)=  0.00000000 RMS(Int)=  0.00000000
 Variable       Old X    -DE/DX   Delta X   Delta X   Delta X     New X
                                 (Linear)    (Quad)   (Total)
    R1        2.25957   0.00000   0.00000  -0.00014  -0.00010   2.25948
    R2        4.78412   0.00006   0.00000   0.17882   0.12517   4.90929
    R3        1.81949   0.00015   0.00000   0.00011   0.00007   1.81957
    R4        1.81744   0.00005   0.00000   0.00008   0.00005   1.81750
    A1        1.81042  -0.00001   0.00000  -0.00742  -0.00520   1.80523
    A2        1.57091   0.00038   0.00000  -0.10019  -0.07013   1.50077
    A3        4.26221   0.00023   0.00000   0.20991   0.14693   4.40914
    A4        5.84845  -0.00004   0.00000   0.00546   0.00382   5.85227
    D1       -1.06744   0.00006   0.00000  -0.06198  -0.04339  -1.11083
         Item               Value     Threshold  Converged?
 Maximum Force            0.000379     0.000450     YES
 RMS     Force            0.000159     0.000300     YES
 Maximum Displacement     0.067414     0.001800     NO 
 RMS     Displacement     0.046873     0.001200     NO 
 Predicted change in Energy=-1.195555D-05
 GradGradGradGradGradGradGradGradGradGradGradGradGradGradGradGradGradGrad

                          Input orientation:                          
[...]
 Red. masses --     5.4722                 1.4147                 1.1192
 Frc consts  --     0.0187                 0.0059                 0.0101
 IR Inten    --    17.6089               153.5238               127.1825
  Atom  AN      X      Y      Z        X      Y      Z        X      Y      Z
     1   8     0.42   0.04   0.00     0.07   0.00   0.00     0.02   0.01  -0.01
     2   8    -0.24  -0.17   0.00     0.03  -0.02   0.02    -0.01   0.01   0.03
     3   1    -0.35   0.11   0.05     0.07   0.01  -0.05     0.61   0.16  -0.30
     4   8    -0.15   0.09   0.03    -0.11   0.06  -0.06    -0.04  -0.06  -0.03
     5   1    -0.25   0.50  -0.50     0.08  -0.70   0.69    -0.19   0.55   0.41
                     4                      5                      6
                     A                      A                      A
 Frequencies --   151.0249               244.2078              1601.2173
 Red. masses --     4.5941                 1.1169                 1.0835
 Frc consts  --     0.0617                 0.0392                 1.6367
 IR Inten    --    21.4227               111.5220               124.5081
  Atom  AN      X      Y      Z        X      Y      Z        X      Y      Z
     1   8     0.03  -0.01   0.00     0.00   0.01   0.05     0.00   0.00   0.00
     2   8     0.34   0.09  -0.01     0.01   0.00  -0.05     0.00   0.00   0.00
     3   1    -0.52   0.00   0.00     0.31  -0.77   0.52     0.69   0.06  -0.16
     4   8    -0.32  -0.11   0.05    -0.03   0.03  -0.03    -0.05   0.02   0.05
     5   1    -0.42   0.32  -0.46    -0.06   0.16   0.04     0.10  -0.39  -0.58
                     7                      8                      9
                     A                      A                      A
 Frequencies --  1774.6813              3880.1022              4005.7993
 Red. masses --    15.9849                 1.0445                 1.0835
 Frc consts  --    29.6620                 9.2648                10.2435
 IR Inten    --     0.0693                14.6489                81.4524
  Atom  AN      X      Y      Z        X      Y      Z        X      Y      Z
     1   8    -0.21   0.67  -0.05     0.00   0.00   0.00     0.00   0.00   0.00
     2   8     0.21  -0.67   0.05     0.00   0.00   0.00     0.00   0.00   0.00
     3   1    -0.01  -0.01   0.01     0.14   0.45   0.58    -0.08  -0.40  -0.53
     4   8     0.00   0.00   0.00     0.03  -0.02  -0.03     0.05   0.04   0.03
     5   1     0.00   0.02   0.01    -0.64  -0.19  -0.04    -0.72  -0.19  -0.01

 -------------------
 - Thermochemistry -
 -------------------
 Temperature   298.150 Kelvin.  Pressure   1.00000 Atm.
 Atom     1 has atomic number  8 and mass  15.99491
 Atom     2 has atomic number  8 and mass  15.99491
 Atom     3 has atomic number  1 and mass   1.00783
 Atom     4 has atomic number  8 and mass  15.99491
 Atom     5 has atomic number  1 and mass   1.00783
 Molecular mass:    50.00039 amu.
 Principal axes and moments of inertia in atomic units:
                           1         2         3
     Eigenvalues --    40.84225 342.87201 379.45209
           X            0.99995   0.00090  -0.00999
           Y           -0.00054   0.99936   0.03581
           Z            0.01001  -0.03580   0.99931
 This molecule is an asymmetric top.
 Rotational symmetry number  1.
 Rotational temperatures (Kelvin)      2.12069     0.25261     0.22826
 Rotational constants (GHZ):          44.18810     5.26360     4.75618
 Zero-point vibrational energy      71424.8 (Joules/Mol)
                                   17.07094 (Kcal/Mol)
 Warning -- explicit consideration of   5 degrees of freedom as
           vibrations may cause significant error
 Vibrational temperatures:    109.66   121.06   178.27   217.29   351.36
          (Kelvin)           2303.79  2553.37  5582.59  5763.44
 
 Zero-point correction=                           0.027204 (Hartree/Particle)
 Thermal correction to Energy=                    0.033414
 Thermal correction to Enthalpy=                  0.034358
 Thermal correction to Gibbs Free Energy=        -0.001799
 Sum of electronic and zero-point Energies=           -226.575871
 Sum of electronic and thermal Energies=              -226.569661
 Sum of electronic and thermal Enthalpies=            -226.568717
 Sum of electronic and thermal Free Energies=         -226.604874
 
                     E (Thermal)             CV                S
                      KCal/Mol        Cal/Mol-Kelvin    Cal/Mol-Kelvin
 Total                   20.968             15.570             76.101
 Electronic               0.000              0.000              0.000
 Translational            0.889              2.981             37.652
 Rotational               0.889              2.981             23.190
 Vibrational             19.190              9.608             15.259
 Vibration     1          0.599              1.965              3.986
 Vibration     2          0.601              1.960              3.792
 Vibration     3          0.610              1.929              3.039
 Vibration     4          0.618              1.902              2.659
 Vibration     5          0.660              1.772              1.772
                       Q            Log10(Q)             Ln(Q)
 Total Bot       0.672451D+01          0.827661          1.905759
 Total V=0       0.219145D+14         13.340731         30.718168
 Vib (Bot)       0.185438D-10        -10.731800        -24.710884
 Vib (Bot)    1  0.270362D+01          0.431945          0.994590
 Vib (Bot)    2  0.244599D+01          0.388455          0.894450
 Vib (Bot)    3  0.164780D+01          0.216904          0.499441
 Vib (Bot)    4  0.134222D+01          0.127824          0.294326
 Vib (Bot)    5  0.801375D+00         -0.096164         -0.221426
 Vib (V=0)       0.604324D+02          1.781270          4.101525
 Vib (V=0)    1  0.324946D+01          0.511812          1.178490
 Vib (V=0)    2  0.299657D+01          0.476625          1.097469
 Vib (V=0)    3  0.222199D+01          0.346742          0.798402
 Vib (V=0)    4  0.193233D+01          0.286080          0.658725
 Vib (V=0)    5  0.144456D+01          0.159737          0.367808
 Electronic      0.100000D+01          0.000000          0.000000
 Translational   0.138968D+08          7.142915         16.447170
 Rotational      0.260943D+05          4.416546         10.169472
 ***** Axes restored to original set *****
 -------------------------------------------------------------------
 Center     Atomic                   Forces (Hartrees/Bohr)
 Number     Number              X              Y              Z
 -------------------------------------------------------------------
      1        8          -0.000045615   -0.000058956   -0.000233715
      2        8           0.000010378   -0.000095289    0.000139325
      3        1           0.000070032    0.000195656    0.000090901
      4        8          -0.000041322    0.000083942    0.000251806
      5        1           0.000006526   -0.000125354   -0.000248316
 -------------------------------------------------------------------
 Cartesian Forces:  Max     0.000251806 RMS     0.000138997

 GradGradGradGradGradGradGradGradGradGradGradGradGradGradGradGradGradGrad
 Berny optimization.
 Internal  Forces:  Max     0.000054902 RMS     0.000031948
 Search for a saddle point.
 Step number   1 out of a maximum of    2
 All quantities printed in internal units (Hartrees-Bohrs-Radians)
 Swaping is turned off.
 Second derivative matrix not updated -- analytic derivatives used.
 The second derivative matrix:
                          R1        R2        R3        R4        A1
           R1           0.95355
           R2          -0.00067   0.00985
           R3           0.00042  -0.00823   0.59622
           R4          -0.00059  -0.00293   0.00245   0.56078
           A1           0.00176   0.00347   0.00051   0.00025   0.01195
           A2          -0.00026  -0.02150   0.14449   0.04832   0.00476
           A3           0.00092  -0.01818   0.07468   0.02430  -0.00122
           A4           0.00000   0.00003  -0.00007   0.00000   0.00000
           D1           0.00120  -0.00151  -0.00026  -0.00009   0.00007
                          A2        A3        A4        D1
           A2           0.47554
           A3           0.23800   0.12620
           A4          -0.00034  -0.00036   0.00000
           D1          -0.00270   0.00025   0.00000   0.00370
     Eigenvalues ---   -0.00004   0.00048   0.00309   0.00832   0.01798
     Eigenvalues ---    0.42388   0.56293   0.76758   0.95355
 Eigenvectors required to have negative eigenvalues:
                          A4        A3        R2        A2        D1
   1                    0.96649   0.18913   0.14873  -0.08733  -0.01583
                          A1        R3        R4        R1
   1                    0.01102  -0.00037   0.00011  -0.00010
 Angle between quadratic step and forces=  52.97 degrees.
 Linear search not attempted -- option 19 set.
 Iteration  1 RMS(Cart)=  0.00041983 RMS(Int)=  0.00385985
 Iteration  2 RMS(Cart)=  0.00003760 RMS(Int)=  0.00382131
 Iteration  3 RMS(Cart)=  0.00003747 RMS(Int)=  0.00378290
 Iteration  4 RMS(Cart)=  0.00003735 RMS(Int)=  0.00374461
 Iteration  5 RMS(Cart)=  0.00003723 RMS(Int)=  0.00370646
 Iteration  6 RMS(Cart)=  0.00003711 RMS(Int)=  0.00366842
 Iteration  7 RMS(Cart)=  0.00003700 RMS(Int)=  0.00363050
 Iteration  8 RMS(Cart)=  0.00003689 RMS(Int)=  0.00359269
 Iteration  9 RMS(Cart)=  0.00003678 RMS(Int)=  0.00355499
 Iteration 10 RMS(Cart)=  0.00003667 RMS(Int)=  0.00351740
 Iteration 11 RMS(Cart)=  0.00003657 RMS(Int)=  0.00347991
 Iteration 12 RMS(Cart)=  0.00003648 RMS(Int)=  0.00344252
 Iteration 13 RMS(Cart)=  0.00003638 RMS(Int)=  0.00340522
 Iteration 14 RMS(Cart)=  0.00003629 RMS(Int)=  0.00336803
 Iteration 15 RMS(Cart)=  0.00003620 RMS(Int)=  0.00333092
 Iteration 16 RMS(Cart)=  0.00003612 RMS(Int)=  0.00329390
 Iteration 17 RMS(Cart)=  0.00003603 RMS(Int)=  0.00325696
 Iteration 18 RMS(Cart)=  0.00003595 RMS(Int)=  0.00322010
 Iteration 19 RMS(Cart)=  0.00003588 RMS(Int)=  0.00318333
 Iteration 20 RMS(Cart)=  0.00003580 RMS(Int)=  0.00314663
 Iteration 21 RMS(Cart)=  0.00003573 RMS(Int)=  0.00311000
 Iteration 22 RMS(Cart)=  0.00003566 RMS(Int)=  0.00307345
 Iteration 23 RMS(Cart)=  0.00003560 RMS(Int)=  0.00303696
 Iteration 24 RMS(Cart)=  0.00003553 RMS(Int)=  0.00300054
 Iteration 25 RMS(Cart)=  0.00003547 RMS(Int)=  0.00296418
 Iteration 26 RMS(Cart)=  0.00003541 RMS(Int)=  0.00292788
 Iteration 27 RMS(Cart)=  0.00003536 RMS(Int)=  0.00289163
 Iteration 28 RMS(Cart)=  0.00003530 RMS(Int)=  0.00285545
 Iteration 29 RMS(Cart)=  0.00003525 RMS(Int)=  0.00281931
 Iteration 30 RMS(Cart)=  0.00003520 RMS(Int)=  0.00278323
 Iteration 31 RMS(Cart)=  0.00003515 RMS(Int)=  0.00274720
 Iteration 32 RMS(Cart)=  0.00003511 RMS(Int)=  0.00271121
 Iteration 33 RMS(Cart)=  0.00003507 RMS(Int)=  0.00267526
 Iteration 34 RMS(Cart)=  0.00003503 RMS(Int)=  0.00263935
 Iteration 35 RMS(Cart)=  0.00003499 RMS(Int)=  0.00260349
 Iteration 36 RMS(Cart)=  0.00003495 RMS(Int)=  0.00256766
 Iteration 37 RMS(Cart)=  0.00003492 RMS(Int)=  0.00253186
 Iteration 38 RMS(Cart)=  0.00003489 RMS(Int)=  0.00249610
 Iteration 39 RMS(Cart)=  0.00003486 RMS(Int)=  0.00246037
 Iteration 40 RMS(Cart)=  0.00003483 RMS(Int)=  0.00242466
 Iteration 41 RMS(Cart)=  0.00003480 RMS(Int)=  0.00238899
 Iteration 42 RMS(Cart)=  0.00003478 RMS(Int)=  0.00235333
 Iteration 43 RMS(Cart)=  0.00003476 RMS(Int)=  0.00231770
 Iteration 44 RMS(Cart)=  0.00003474 RMS(Int)=  0.00228208
 Iteration 45 RMS(Cart)=  0.00003472 RMS(Int)=  0.00224649
 Iteration 46 RMS(Cart)=  0.00003471 RMS(Int)=  0.00221091
 Iteration 47 RMS(Cart)=  0.00003469 RMS(Int)=  0.00217534
 Iteration 48 RMS(Cart)=  0.00003468 RMS(Int)=  0.00213979
 Iteration 49 RMS(Cart)=  0.00003467 RMS(Int)=  0.00210424
 Iteration 50 RMS(Cart)=  0.00003467 RMS(Int)=  0.00206870
 Iteration 51 RMS(Cart)=  0.00003466 RMS(Int)=  0.00203317
 Iteration 52 RMS(Cart)=  0.00003466 RMS(Int)=  0.00199764
 Iteration 53 RMS(Cart)=  0.00003466 RMS(Int)=  0.00196211
 Iteration 54 RMS(Cart)=  0.00003466 RMS(Int)=  0.00192658
 Iteration 55 RMS(Cart)=  0.00003466 RMS(Int)=  0.00189105
 Iteration 56 RMS(Cart)=  0.00003466 RMS(Int)=  0.00185551
 Iteration 57 RMS(Cart)=  0.00003467 RMS(Int)=  0.00181997
 Iteration 58 RMS(Cart)=  0.00003468 RMS(Int)=  0.00178441
 Iteration 59 RMS(Cart)=  0.00003469 RMS(Int)=  0.00174885
 Iteration 60 RMS(Cart)=  0.00003471 RMS(Int)=  0.00171327
 Iteration 61 RMS(Cart)=  0.00003472 RMS(Int)=  0.00167767
 Iteration 62 RMS(Cart)=  0.00003474 RMS(Int)=  0.00164205
 Iteration 63 RMS(Cart)=  0.00003476 RMS(Int)=  0.00160642
 Iteration 64 RMS(Cart)=  0.00003478 RMS(Int)=  0.00157076
 Iteration 65 RMS(Cart)=  0.00003481 RMS(Int)=  0.00153507
 Iteration 66 RMS(Cart)=  0.00003484 RMS(Int)=  0.00149935
 Iteration 67 RMS(Cart)=  0.00003487 RMS(Int)=  0.00146360
 Iteration 68 RMS(Cart)=  0.00003490 RMS(Int)=  0.00142782
 Iteration 69 RMS(Cart)=  0.00003494 RMS(Int)=  0.00139199
 Iteration 70 RMS(Cart)=  0.00003498 RMS(Int)=  0.00135613
 Iteration 71 RMS(Cart)=  0.00003503 RMS(Int)=  0.00132021
 Iteration 72 RMS(Cart)=  0.00003508 RMS(Int)=  0.00128425
 Iteration 73 RMS(Cart)=  0.00003513 RMS(Int)=  0.00124823
 Iteration 74 RMS(Cart)=  0.00003519 RMS(Int)=  0.00121216
 Iteration 75 RMS(Cart)=  0.00003525 RMS(Int)=  0.00117602
 Iteration 76 RMS(Cart)=  0.00003531 RMS(Int)=  0.00113982
 Iteration 77 RMS(Cart)=  0.00003539 RMS(Int)=  0.00110354
 Iteration 78 RMS(Cart)=  0.00003546 RMS(Int)=  0.00106718
 Iteration 79 RMS(Cart)=  0.00003555 RMS(Int)=  0.00103074
 Iteration 80 RMS(Cart)=  0.00003564 RMS(Int)=  0.00099420
 Iteration 81 RMS(Cart)=  0.00003574 RMS(Int)=  0.00095756
 Iteration 82 RMS(Cart)=  0.00003585 RMS(Int)=  0.00092081
 Iteration 83 RMS(Cart)=  0.00003596 RMS(Int)=  0.00088394
 Iteration 84 RMS(Cart)=  0.00003609 RMS(Int)=  0.00084694
 Iteration 85 RMS(Cart)=  0.00003623 RMS(Int)=  0.00080979
 Iteration 86 RMS(Cart)=  0.00003638 RMS(Int)=  0.00077249
 Iteration 87 RMS(Cart)=  0.00003655 RMS(Int)=  0.00073502
 Iteration 88 RMS(Cart)=  0.00003674 RMS(Int)=  0.00069736
 Iteration 89 RMS(Cart)=  0.00003694 RMS(Int)=  0.00065949
 Iteration 90 RMS(Cart)=  0.00003718 RMS(Int)=  0.00062138
 Iteration 91 RMS(Cart)=  0.00003744 RMS(Int)=  0.00058301
 Iteration 92 RMS(Cart)=  0.00003773 RMS(Int)=  0.00054434
 Iteration 93 RMS(Cart)=  0.00003807 RMS(Int)=  0.00050533
 Iteration 94 RMS(Cart)=  0.00003846 RMS(Int)=  0.00046593
 Iteration 95 RMS(Cart)=  0.00003891 RMS(Int)=  0.00042607
 Iteration 96 RMS(Cart)=  0.00003945 RMS(Int)=  0.00038567
 Iteration 97 RMS(Cart)=  0.00004010 RMS(Int)=  0.00034462
 Iteration 98 RMS(Cart)=  0.00004090 RMS(Int)=  0.00030279
 Iteration 99 RMS(Cart)=  0.00004192 RMS(Int)=  0.00025995
 Iteration100 RMS(Cart)=  0.00004325 RMS(Int)=  0.00021583
 New curvilinear step not converged.
 Iteration  1 RMS(Cart)=  0.00037785 RMS(Int)=  0.00347541
 Iteration  2 RMS(Cart)=  0.00029041 RMS(Int)=  0.00317067
 Iteration  3 RMS(Cart)=  0.00029306 RMS(Int)=  0.00286326
 Iteration  4 RMS(Cart)=  0.00029640 RMS(Int)=  0.00255253
 Iteration  5 RMS(Cart)=  0.00030063 RMS(Int)=  0.00223762
 Iteration  6 RMS(Cart)=  0.00030600 RMS(Int)=  0.00191749
 Iteration  7 RMS(Cart)=  0.00031318 RMS(Int)=  0.00159055
 Iteration  8 RMS(Cart)=  0.00032312 RMS(Int)=  0.00125454
 Iteration  9 RMS(Cart)=  0.00033773 RMS(Int)=  0.00090629
 Iteration 10 RMS(Cart)=  0.00036073 RMS(Int)=  0.00054352
 Iteration 11 RMS(Cart)=  0.00039014 RMS(Int)=  0.00020278
 Iteration 12 RMS(Cart)=  0.00018301 RMS(Int)=  0.00000660
 Iteration 13 RMS(Cart)=  0.00000382 RMS(Int)=  0.00000003
 Iteration 14 RMS(Cart)=  0.00000003 RMS(Int)=  0.00000000
 Variable       Old X    -DE/DX   Delta X   Delta X   Delta X     New X
                                 (Linear)    (Quad)   (Total)
    R1        2.25951   0.00000   0.00000  -0.00002  -0.00002   2.25949
    R2        4.93096  -0.00001   0.00000  -0.00114  -0.00103   4.92994
    R3        1.81935  -0.00004   0.00000  -0.00010  -0.00009   1.81926
    R4        1.81757   0.00003   0.00000   0.00005   0.00004   1.81761
    A1        1.80016   0.00005   0.00000   0.00497   0.00448   1.80463
    A2        1.49435   0.00003   0.00000  -0.00016  -0.00015   1.49420
    A3        4.42664   0.00002   0.00000   0.00040   0.00036   4.42700
    A4        5.85620   0.00000   0.00000  -0.00528  -0.00475   5.85145
    D1       -1.08627   0.00004   0.00000   0.01062   0.00956  -1.07671
         Item               Value     Threshold  Converged?
 Maximum Force            0.000055     0.000450     YES
 RMS     Force            0.000032     0.000300     YES
 Maximum Displacement     0.006489     0.001800     NO 
 RMS     Displacement     0.003776     0.001200     NO 
 Predicted change in Energy=-3.690795D-07
 GradGradGradGradGradGradGradGradGradGradGradGradGradGradGradGradGradGrad

 1|1|UNPC-DESKTOP-319GPER|Freq|RM062X|6-31+G(d,p)|H2O3|SAGAD|09-Feb-202
 1|0||#N Geom=AllCheck Guess=TCheck SCRF=Check GenChk RM062X/6-31+G(d,p
 ) Freq||ts OOH vs OH||0,1|O,-1.9288198997,1.7005198973,-0.1220751964|O
 ,-1.9904816624,0.5067125517,-0.1481359163|H,0.39316831,-0.2273245786,0
 .6187606054|O,0.7063539043,0.2265798183,-0.1704101722|H,1.6629651778,0
 .1269552113,-0.1781393204||Version=IA32W-G09RevA.02|State=1-A|HF=-226.
 603075|RMSD=1.582e-010|RMSF=1.390e-004|ZeroPoint=0.0272043|Thermal=0.0
 334143|Dipole=0.5186204,-0.4055914,0.5678512|DipoleDeriv=0.0067874,0.0
 273107,-0.002982,0.0212433,-0.004606,-0.0031629,-0.0024262,-0.0135544,
 -0.0005426,0.0178781,-0.0317355,-0.0116888,-0.0221943,-0.0187761,0.007
 9574,-0.0107135,0.0273817,-0.0081325,0.3605865,-0.0276912,0.0035002,-0
 .0082039,0.3229485,0.0884036,0.0160305,0.0735698,0.2375755,-0.5902583,
 -0.0119188,0.0426395,-0.0323881,-0.6684424,-0.1297336,0.0500673,-0.130
 543,-0.5735693,0.2050062,0.0440349,-0.031469,0.0415429,0.3688761,0.036
 5355,-0.0529581,0.0431458,0.3446689|Polar=14.6154349,-0.1651527,19.031
 2071,-0.2972998,-0.0898701,12.5168474|PG=C01 [X(H2O3)]|NImag=0||0.0047
 9260,0.04850342,0.95049943,0.00237937,0.02026732,0.00193788,-0.0032164
 5,-0.04793082,-0.00249936,0.00929908,-0.04927635,-0.95015612,-0.020213
 82,0.04727906,0.95036283,-0.00235617,-0.02015689,-0.00207672,0.0026604
 4,0.02002472,0.00247742,-0.00013584,-0.00031227,0.00026760,0.00019973,
 0.00032739,-0.00018319,0.10913284,0.00012370,-0.00107769,0.00031574,0.
 00012051,0.00083868,-0.00023310,0.07968482,0.12520484,-0.00049815,-0.0
 0010615,0.00029549,-0.00024704,0.00054525,-0.00064447,-0.14833309,-0.2
 1258443,0.37140415,-0.00143386,0.00012271,-0.00010382,-0.00567197,0.00
 122154,-0.00018178,-0.09493694,-0.08735546,0.15864253,0.64321733,0.000
 37524,-0.00006751,-0.00025880,0.00040646,-0.00023742,0.00024763,-0.055
 91023,-0.12614443,0.21022094,0.01297308,0.14495472,0.00065586,-0.00004
 591,-0.00018577,-0.00064698,-0.00032754,0.00017132,0.10732304,0.216266
 86,-0.36964509,-0.13639394,-0.23244141,0.40191974,-0.00000646,-0.00038
 305,-0.00004379,-0.00061040,0.00044836,0.00006070,-0.01425981,0.007426
 42,-0.00956425,-0.54117456,0.04215545,0.02906201,0.55605122,0.00027399
 ,0.00080189,-0.00011043,0.00012478,-0.00080797,0.00011764,-0.02378971,
 0.00117860,0.00192439,0.07303813,-0.01850536,0.01654800,-0.04964718,0.
 01733284,-0.00018091,0.00004163,0.00002911,0.00073294,-0.00002861,0.00
 007245,0.04092563,-0.00376507,-0.00141008,-0.02196300,0.02223164,-0.03
 226019,-0.01951466,-0.01847959,0.03356872||0.00004561,0.00005896,0.000
 23372,-0.00001038,0.00009529,-0.00013932,-0.00007003,-0.00019566,-0.00
 009090,0.00004132,-0.00008394,-0.00025181,-0.00000653,0.00012535,0.000
 24832|||@


 TO ERR IS HUMAN - AND TO BLAME IT ON A COMPUTER IS EVEN MORE SO.
 Job cpu time:  0 days  0 hours  0 minutes 14.0 seconds.
 File lengths (MBytes):  RWF=      6 Int=      0 D2E=      0 Chk=      1 Scr=      1
 Normal termination of Gaussian 09 at Tue Feb 09 13:22:21 2021.
