 Entering Link 1 = C:\G09W\l1.exe PID=       172.
  
 Copyright (c) 1988,1990,1992,1993,1995,1998,2003,2009, Gaussian, Inc.
                  All Rights Reserved.
  
 This is part of the Gaussian(R) 09 program.  It is based on
 the Gaussian(R) 03 system (copyright 2003, Gaussian, Inc.),
 the Gaussian(R) 98 system (copyright 1998, Gaussian, Inc.),
 the Gaussian(R) 94 system (copyright 1995, Gaussian, Inc.),
 the Gaussian 92(TM) system (copyright 1992, Gaussian, Inc.),
 the Gaussian 90(TM) system (copyright 1990, Gaussian, Inc.),
 the Gaussian 88(TM) system (copyright 1988, Gaussian, Inc.),
 the Gaussian 86(TM) system (copyright 1986, Carnegie Mellon
 University), and the Gaussian 82(TM) system (copyright 1983,
 Carnegie Mellon University). Gaussian is a federally registered
 trademark of Gaussian, Inc.
  
 This software contains proprietary and confidential information,
 including trade secrets, belonging to Gaussian, Inc.
  
 This software is provided under written license and may be
 used, copied, transmitted, or stored only in accord with that
 written license.
  
 The following legend is applicable only to US Government
 contracts under FAR:
  
                    RESTRICTED RIGHTS LEGEND
  
 Use, reproduction and disclosure by the US Government is
 subject to restrictions as set forth in subparagraphs (a)
 and (c) of the Commercial Computer Software - Restricted
 Rights clause in FAR 52.227-19.
  
 Gaussian, Inc.
 340 Quinnipiac St., Bldg. 40, Wallingford CT 06492
  
  
 ---------------------------------------------------------------
 Warning -- This program may not be used in any manner that
 competes with the business of Gaussian, Inc. or will provide
 assistance to any competitor of Gaussian, Inc.  The licensee
 of this program is prohibited from giving any competitor of
 Gaussian, Inc. access to this program.  By using this program,
 the user acknowledges that Gaussian, Inc. is engaged in the
 business of creating and licensing software in the field of
 computational chemistry and represents and warrants to the
 licensee that it is not a competitor of Gaussian, Inc. and that
 it will not use this program in any manner prohibited above.
 ---------------------------------------------------------------
  

 Cite this work as:
 Gaussian 09, Revision A.02,
 M. J. Frisch, G. W. Trucks, H. B. Schlegel, G. E. Scuseria, 
 M. A. Robb, J. R. Cheeseman, G. Scalmani, V. Barone, B. Mennucci, 
 G. A. Petersson, H. Nakatsuji, M. Caricato, X. Li, H. P. Hratchian, 
 A. F. Izmaylov, J. Bloino, G. Zheng, J. L. Sonnenberg, M. Hada, 
 M. Ehara, K. Toyota, R. Fukuda, J. Hasegawa, M. Ishida, T. Nakajima, 
 Y. Honda, O. Kitao, H. Nakai, T. Vreven, J. A. Montgomery, Jr., 
 J. E. Peralta, F. Ogliaro, M. Bearpark, J. J. Heyd, E. Brothers, 
 K. N. Kudin, V. N. Staroverov, R. Kobayashi, J. Normand, 
 K. Raghavachari, A. Rendell, J. C. Burant, S. S. Iyengar, J. Tomasi, 
 M. Cossi, N. Rega, J. M. Millam, M. Klene, J. E. Knox, J. B. Cross, 
 V. Bakken, C. Adamo, J. Jaramillo, R. Gomperts, R. E. Stratmann, 
 O. Yazyev, A. J. Austin, R. Cammi, C. Pomelli, J. W. Ochterski, 
 R. L. Martin, K. Morokuma, V. G. Zakrzewski, G. A. Voth, 
 P. Salvador, J. J. Dannenberg, S. Dapprich, A. D. Daniels, 
 O. Farkas, J. B. Foresman, J. V. Ortiz, J. Cioslowski, 
 and D. J. Fox, Gaussian, Inc., Wallingford CT, 2009.
 
 ******************************************
 Gaussian 09:  IA32W-G09RevA.02 11-Jun-2009
                08-Feb-2021 
 ******************************************
 %chk=D:\Documents\rayGit\FQ\quimicaComputacional\proyecto\decompositionHydrogenP
 eroxide\descompositionByRadicals\gasPhase\step4\ts\Q2ST\ts\ts.chk
 %mem=1500MB
 %nprocshared=4
 Will use up to    4 processors via shared memory.
 ---------------------------------------------------------------------
 # opt=(calcfc,ts,noeigen,maxcycle=100) freq=noraman 6-31+g(d,p) m062x
 ---------------------------------------------------------------------
 1/5=1,6=100,10=4,11=1,14=-1,18=20,26=3,38=1/1,3;
 2/9=110,12=2,17=6,18=5,40=1/2;
 3/5=1,6=6,7=111,11=2,16=1,25=1,30=1,71=2,74=-55/1,2,3;
 4//1;
 5/5=2,38=5/2;
 8/6=4,10=90,11=11/1;
 11/6=1,8=1,9=11,15=111,16=1/1,2,10;
 10/6=1,7=6,13=1/2;
 6/7=2,8=2,9=2,10=2,28=1/1;
 7/10=1,18=20,25=1/1,2,3,16;
 1/5=1,6=100,10=4,11=1,14=-1,18=20/3(2);
 2/9=110/2;
 99//99;
 2/9=110/2;
 3/5=1,6=6,7=111,11=2,16=1,25=1,30=1,71=1,74=-55/1,2,3;
 4/5=5,16=3/1;
 5/5=2,38=5/2;
 7//1,2,3,16;
 1/5=1,6=100,11=1,14=-1,18=20/3(-5);
 2/9=110/2;
 6/7=2,8=2,9=2,10=2,19=2,28=1/1;
 99/9=1/99;
 ---
 ts2
 ---
 Symbolic Z-matrix:
 Charge =  0 Multiplicity = 1
 O                    -0.6462   -0.12861   0. 
 O                     0.66823  -0.0075    0. 
 H                     1.7638    0.09113   0. 
 O                     2.50584   0.87475   0. 
 H                     1.71716   1.42209   0. 
 

 GradGradGradGradGradGradGradGradGradGradGradGradGradGradGradGradGradGrad
 Berny optimization.
 Initialization pass.
                           ----------------------------
                           !    Initial Parameters    !
                           ! (Angstroms and Degrees)  !
 --------------------------                            --------------------------
 ! Name  Definition              Value          Derivative Info.                !
 --------------------------------------------------------------------------------
 ! R1    R(1,2)                  1.32           calculate D2E/DX2 analytically  !
 ! R2    R(2,3)                  1.1            calculate D2E/DX2 analytically  !
 ! R3    R(3,4)                  1.0792         calculate D2E/DX2 analytically  !
 ! R4    R(4,5)                  0.96           calculate D2E/DX2 analytically  !
 ! A1    A(2,3,4)              138.5834         calculate D2E/DX2 analytically  !
 ! A2    A(3,4,5)               81.3216         calculate D2E/DX2 analytically  !
 ! A3    L(1,2,3,4,-1)         180.12           calculate D2E/DX2 analytically  !
 ! A4    L(1,2,3,4,-2)         180.0            calculate D2E/DX2 analytically  !
 ! D1    D(2,3,4,5)              0.0            calculate D2E/DX2 analytically  !
 --------------------------------------------------------------------------------
 Trust Radius=3.00D-01 FncErr=1.00D-07 GrdErr=1.00D-06
 Number of steps in this run= 100 maximum allowed number of steps= 100.
 Search for a saddle point of order  1.
 GradGradGradGradGradGradGradGradGradGradGradGradGradGradGradGradGradGrad

                          Input orientation:                          
 ---------------------------------------------------------------------
 Center     Atomic      Atomic             Coordinates (Angstroms)
 Number     Number       Type             X           Y           Z
 ---------------------------------------------------------------------
      1          8           0       -0.646200   -0.128612    0.000000
      2          8           0        0.668232   -0.007500    0.000000
      3          1           0        1.763801    0.091133    0.000000
      4          8           0        2.505844    0.874751    0.000000
      5          1           0        1.717164    1.422093    0.000000
 ---------------------------------------------------------------------
                    Distance matrix (angstroms):
                    1          2          3          4          5
     1  O    0.000000
     2  O    1.320000   0.000000
     3  H    2.419999   1.100000   0.000000
     4  O    3.307887   2.038427   1.079206   0.000000
     5  H    2.826690   1.773132   1.331778   0.960000   0.000000
 Stoichiometry    H2O3
 Framework group  CS[SG(H2O3)]
 Deg. of freedom     7
 Full point group                 CS      NOp   2
 Largest Abelian subgroup         CS      NOp   2
 Largest concise Abelian subgroup C1      NOp   1
                         Standard orientation:                         
 ---------------------------------------------------------------------
 Center     Atomic      Atomic             Coordinates (Angstroms)
 Number     Number       Type             X           Y           Z
 ---------------------------------------------------------------------
      1          8           0        0.933533    1.314157    0.000000
      2          8           0        0.000000    0.380928    0.000000
      3          1           0       -0.779571   -0.395132    0.000000
      4          8           0       -0.849454   -1.472072    0.000000
      5          1           0        0.106943   -1.388975    0.000000
 ---------------------------------------------------------------------
 Rotational constants (GHZ):    290.6676981      5.5535181      5.4494014
 Standard basis: 6-31+G(d,p) (6D, 7F)
 There are    50 symmetry adapted basis functions of A'  symmetry.
 There are    17 symmetry adapted basis functions of A"  symmetry.
 Integral buffers will be    262144 words long.
 Raffenetti 2 integral format.
 Two-electron integral symmetry is turned on.
    67 basis functions,   110 primitive gaussians,    67 cartesian basis functions
    13 alpha electrons       13 beta electrons
       nuclear repulsion energy        70.7228677928 Hartrees.
 NAtoms=    5 NActive=    5 NUniq=    5 SFac= 7.50D-01 NAtFMM=   80 NAOKFM=F Big=F
 One-electron integrals computed using PRISM.
 NBasis=    67 RedAO= T  NBF=    50    17
 NBsUse=    67 1.00D-06 NBFU=    50    17
 Harris functional with IExCor= 1009 diagonalized for initial guess.
 ExpMin= 8.45D-02 ExpMax= 5.48D+03 ExpMxC= 8.25D+02 IAcc=2 IRadAn=         0 AccDes= 0.00D+00
 HarFok:  IExCor= 1009 AccDes= 0.00D+00 IRadAn=         0 IDoV= 1
 ScaDFX=  1.000000  1.000000  1.000000  1.000000
 FoFCou: FMM=F IPFlag=           0 FMFlag=      100000 FMFlg1=           0
         NFxFlg=           0 DoJE=T BraDBF=F KetDBF=T FulRan=T
         Omega=  0.000000  0.000000  1.000000  0.000000  0.000000 ICntrl=     500 IOpCl=  0
         NMat0=    1 NMatS0=    1 NMatT0=    0 NMatD0=    1 NMtDS0=    0 NMtDT0=    0
         I1Cent=           4 NGrid=           0.
 Petite list used in FoFCou.
 Initial guess orbital symmetries:
       Occupied  (A') (A') (A') (A') (A') (A') (A') (A') (A") (A')
                 (A') (A") (A')
       Virtual   (A") (A') (A') (A') (A') (A") (A') (A') (A") (A')
                 (A') (A") (A') (A') (A') (A') (A') (A') (A") (A')
                 (A') (A") (A') (A') (A') (A") (A') (A') (A") (A')
                 (A") (A') (A") (A') (A") (A') (A') (A") (A') (A')
                 (A') (A") (A') (A') (A") (A') (A') (A") (A') (A')
                 (A') (A') (A') (A')
 The electronic state of the initial guess is 1-A'.
 Requested convergence on RMS density matrix=1.00D-08 within 128 cycles.
 Requested convergence on MAX density matrix=1.00D-06.
 Requested convergence on             energy=1.00D-06.
 No special actions if energy rises.
 Keep R1 ints in memory in canonical form, NReq=3551235.
 Integral accuracy reduced to 1.0D-05 until final iterations.
 Initial convergence to 1.0D-05 achieved.  Increase integral accuracy.
 SCF Done:  E(RM062X) =  -226.473326269     A.U. after   20 cycles
             Convg  =    0.3821D-08             -V/T =  2.0075
 Range of M.O.s used for correlation:     1    67
 NBasis=    67 NAE=    13 NBE=    13 NFC=     0 NFV=     0
 NROrb=     67 NOA=    13 NOB=    13 NVA=    54 NVB=    54

 **** Warning!!: The largest alpha MO coefficient is  0.20448408D+02

 Symmetrizing basis deriv contribution to polar:
 IMax=3 JMax=2 DiffMx= 0.00D+00
 G2DrvN: will do     6 centers at a time, making    1 passes doing MaxLOS=2.
 Calling FoFCou, ICntrl=  3107 FMM=F I1Cent=   0 AccDes= 0.00D+00.
 FoFDir/FoFCou used for L=0 through L=2.
 End of G2Drv Frequency-dependent properties file   721 does not exist.
 End of G2Drv Frequency-dependent properties file   722 does not exist.
          IDoAtm=11111
          Differentiating once with respect to nuclear coordinates.
          Keep R1 ints in memory in canonical form, NReq=3416965.
          There are    18 degrees of freedom in the 1st order CPHF.  IDoFFX=5.
     12 vectors produced by pass  0 Test12= 3.90D-11 5.56D-07 XBig12= 1.44D-01 2.70D-01.
 AX will form    12 AO Fock derivatives at one time.
     12 vectors produced by pass  1 Test12= 3.90D-11 5.56D-07 XBig12= 2.67D-02 9.42D-02.
     12 vectors produced by pass  2 Test12= 3.90D-11 5.56D-07 XBig12= 5.49D-04 5.64D-03.
     12 vectors produced by pass  3 Test12= 3.90D-11 5.56D-07 XBig12= 1.18D-05 8.73D-04.
     12 vectors produced by pass  4 Test12= 3.90D-11 5.56D-07 XBig12= 1.28D-07 7.86D-05.
      8 vectors produced by pass  5 Test12= 3.90D-11 5.56D-07 XBig12= 8.44D-10 9.57D-06.
 Inverted reduced A of dimension    68 with in-core refinement.
 End of Minotr Frequency-dependent properties file   721 does not exist.
 End of Minotr Frequency-dependent properties file   722 does not exist.

 **********************************************************************

            Population analysis using the SCF density.

 **********************************************************************

 Orbital symmetries:
       Occupied  (A') (A') (A') (A') (A') (A') (A') (A') (A") (A')
                 (A') (A') (A")
       Virtual   (A") (A') (A') (A') (A") (A') (A') (A') (A") (A')
                 (A') (A") (A') (A') (A') (A') (A') (A') (A") (A')
                 (A') (A") (A') (A') (A") (A') (A') (A') (A") (A')
                 (A") (A') (A') (A") (A') (A") (A') (A") (A') (A')
                 (A') (A") (A') (A') (A") (A') (A') (A") (A') (A')
                 (A') (A') (A') (A')
 The electronic state is 1-A'.
 Alpha  occ. eigenvalues --  -19.85804 -19.85421 -19.65375  -1.38790  -1.16386
 Alpha  occ. eigenvalues --   -1.01068  -0.71292  -0.63626  -0.60237  -0.53668
 Alpha  occ. eigenvalues --   -0.44741  -0.41180  -0.38608
 Alpha virt. eigenvalues --   -0.20412   0.05159   0.07157   0.11861   0.12997
 Alpha virt. eigenvalues --    0.14677   0.17112   0.18035   0.19942   0.23573
 Alpha virt. eigenvalues --    0.23758   0.25964   0.29348   0.37504   0.39683
 Alpha virt. eigenvalues --    0.48304   0.87675   0.98528   1.06140   1.08900
 Alpha virt. eigenvalues --    1.10629   1.11538   1.16688   1.19850   1.24727
 Alpha virt. eigenvalues --    1.24968   1.33075   1.34055   1.39616   1.47942
 Alpha virt. eigenvalues --    1.57336   1.59644   1.62729   1.62961   1.71141
 Alpha virt. eigenvalues --    1.73322   1.87389   1.89348   1.97030   2.17089
 Alpha virt. eigenvalues --    2.27432   2.28670   2.59725   2.61656   2.66226
 Alpha virt. eigenvalues --    2.81034   2.92337   2.94546   3.41690   3.57906
 Alpha virt. eigenvalues --    3.69146   3.83279   4.09320   4.46469
          Condensed to atoms (all electrons):
              1          2          3          4          5
     1  O    7.873690   0.247384   0.012490  -0.001743  -0.015540
     2  O    0.247384   7.908138  -0.043035  -0.013379   0.018860
     3  H    0.012490  -0.043035   0.331259   0.239872  -0.045325
     4  O   -0.001743  -0.013379   0.239872   8.122988   0.271236
     5  H   -0.015540   0.018860  -0.045325   0.271236   0.422284
 Mulliken atomic charges:
              1
     1  O   -0.116280
     2  O   -0.117968
     3  H    0.504739
     4  O   -0.618974
     5  H    0.348484
 Sum of Mulliken atomic charges =   0.00000
 Mulliken charges with hydrogens summed into heavy atoms:
              1
     1  O   -0.116280
     2  O   -0.117968
     4  O    0.234248
 Sum of Mulliken charges with hydrogens summed into heavy atoms =   0.00000
 APT atomic charges:
              1
     1  O    0.173132
     2  O   -0.296105
     3  H    0.325908
     4  O   -0.499902
     5  H    0.296966
 Sum of APT charges=   0.00000
 APT Atomic charges with hydrogens summed into heavy atoms:
              1
     1  O    0.173132
     2  O   -0.296105
     3  H    0.000000
     4  O    0.122973
     5  H    0.000000
 Sum of APT charges=   0.00000
 Electronic spatial extent (au):  <R**2>=            213.1112
 Charge=              0.0000 electrons
 Dipole moment (field-independent basis, Debye):
    X=              1.7511    Y=              1.8823    Z=              0.0000  Tot=              2.5709
 Quadrupole moment (field-independent basis, Debye-Ang):
   XX=            -18.7919   YY=            -21.2867   ZZ=            -17.1531
   XY=             -3.6475   XZ=              0.0000   YZ=              0.0000
 Traceless Quadrupole moment (field-independent basis, Debye-Ang):
   XX=              0.2853   YY=             -2.2095   ZZ=              1.9241
   XY=             -3.6475   XZ=              0.0000   YZ=              0.0000
 Octapole moment (field-independent basis, Debye-Ang**2):
  XXX=              2.4409  YYY=              8.5730  ZZZ=              0.0000  XYY=              8.0576
  XXY=              4.3229  XXZ=              0.0000  XZZ=              1.6059  YZZ=              2.5923
  YYZ=              0.0000  XYZ=              0.0000
 Hexadecapole moment (field-independent basis, Debye-Ang**3):
 XXXX=            -70.1161 YYYY=           -169.4917 ZZZZ=            -14.1489 XXXY=            -44.3130
 XXXZ=              0.0000 YYYX=            -51.5689 YYYZ=              0.0000 ZZZX=              0.0000
 ZZZY=              0.0000 XXYY=            -41.5820 XXZZ=            -13.8244 YYZZ=            -28.8882
 XXYZ=              0.0000 YYXZ=              0.0000 ZZXY=            -14.2198
 N-N= 7.072286779279D+01 E-N=-6.753913170799D+02  KE= 2.247822312456D+02
 Symmetry A'   KE= 2.160916893257D+02
 Symmetry A"   KE= 8.690541919977D+00
  Exact polarizability:   0.000   0.000   0.000   0.000   0.000   0.000
 Approx polarizability:  38.464  36.754  68.786   0.000   0.000  13.018
 Calling FoFJK, ICntrl=    100147 FMM=F ISym2X=1 I1Cent= 0 IOpClX= 0 NMat=1 NMatS=1 NMatT=0.
 ***** Axes restored to original set *****
 -------------------------------------------------------------------
 Center     Atomic                   Forces (Hartrees/Bohr)
 Number     Number              X              Y              Z
 -------------------------------------------------------------------
      1        8           0.110613064   -0.000448086    0.000000000
      2        8          -0.269077908   -0.035698645    0.000000000
      3        1           0.148769245    0.023217172    0.000000000
      4        8          -0.009488390   -0.024327857    0.000000000
      5        1           0.019183989    0.037257416    0.000000000
 -------------------------------------------------------------------
 Cartesian Forces:  Max     0.269077908 RMS     0.086031818

 GradGradGradGradGradGradGradGradGradGradGradGradGradGradGradGradGradGrad
 Berny optimization.
 Internal  Forces:  Max     0.161074956 RMS     0.074434783
 Search for a saddle point.
 Step number   1 out of a maximum of  100
 All quantities printed in internal units (Hartrees-Bohrs-Radians)
 Swaping is turned off.
 Second derivative matrix not updated -- analytic derivatives used.
 The second derivative matrix:
                          R1        R2        R3        R4        A1
           R1           0.35108
           R2           0.05742   0.33152
           R3           0.00419   0.19236   0.34172
           R4          -0.00960  -0.00985  -0.00360   0.56145
           A1           0.03431   0.10944   0.10438  -0.02863   0.21361
           A2           0.00884   0.01350   0.08404   0.00585   0.04458
           A3           0.00254   0.03991   0.00845  -0.00798   0.05682
           A4           0.00000   0.00000   0.00000   0.00000   0.00000
           D1           0.00000   0.00000   0.00000   0.00000   0.00000
                          A2        A3        A4        D1
           A2           0.24180
           A3          -0.00752  -0.01722
           A4           0.00000   0.00000  -0.02923
           D1           0.00000   0.00000  -0.02758  -0.03221
     Eigenvalues ---   -0.05835  -0.03364  -0.00310   0.11417   0.16101
     Eigenvalues ---    0.24678   0.34975   0.55714   0.62876
 Eigenvectors required to have negative eigenvalues:
                          D1        A4        A3        R1        A1
   1                    0.72592   0.68778   0.00000   0.00000   0.00000
                          A2        R2        R3        R4
   1                    0.00000   0.00000   0.00000   0.00000
 RFO step:  Lambda0=1.353084311D-16 Lambda=-1.27038866D-01.
 Linear search not attempted -- option 19 set.
 Maximum step size (   0.300) exceeded in Quadratic search.
    -- Step size scaled by   0.273
 Iteration  1 RMS(Cart)=  0.07131043 RMS(Int)=  0.00628721
 Iteration  2 RMS(Cart)=  0.00560184 RMS(Int)=  0.00004905
 Iteration  3 RMS(Cart)=  0.00003115 RMS(Int)=  0.00000000
 Iteration  4 RMS(Cart)=  0.00000000 RMS(Int)=  0.00000000
 ClnCor:  largest displacement from symmetrization is 3.03D-02 for atom     3.
 Variable       Old X    -DE/DX   Delta X   Delta X   Delta X     New X
                                 (Linear)    (Quad)   (Total)
    R1        2.49444  -0.11010   0.00000  -0.08520  -0.08531   2.40913
    R2        2.07870   0.16107   0.00000   0.13513   0.13455   2.21324
    R3        2.03940   0.01605   0.00000  -0.07250  -0.07326   1.96614
    R4        1.81414   0.00547   0.00000   0.00333   0.00294   1.81707
    A1        2.41874   0.07164   0.00000   0.08000   0.08195   2.50069
    A2        1.41933   0.07537   0.00000   0.05391   0.05443   1.47376
    A3        3.14369   0.02639   0.00000  -0.17673  -0.17760   2.96609
    A4        3.14159   0.00000   0.00000  -0.09919   0.00000   3.14159
    D1        0.00000   0.00000   0.00000   0.09398   0.00000   0.00000
         Item               Value     Threshold  Converged?
 Maximum Force            0.161075     0.000450     NO 
 RMS     Force            0.074435     0.000300     NO 
 Maximum Displacement     0.164450     0.001800     NO 
 RMS     Displacement     0.070216     0.001200     NO 
 Predicted change in Energy=-3.301951D-02
 GradGradGradGradGradGradGradGradGradGradGradGradGradGradGradGradGradGrad

                          Input orientation:                          
 ---------------------------------------------------------------------
 Center     Atomic      Atomic             Coordinates (Angstroms)
 Number     Number       Type             X           Y           Z
 ---------------------------------------------------------------------
      1          8           0       -0.641450   -0.097721    0.000000
      2          8           0        0.633404   -0.094523    0.000000
      3          1           0        1.786094    0.112867    0.000000
      4          8           0        2.496723    0.872811    0.000000
      5          1           0        1.734072    1.458431    0.000000
 ---------------------------------------------------------------------
                    Distance matrix (angstroms):
                    1          2          3          4          5
     1  O    0.000000
     2  O    1.274858   0.000000
     3  H    2.436661   1.171198   0.000000
     4  O    3.284823   2.099451   1.040437   0.000000
     5  H    2.839844   1.903454   1.346569   0.961554   0.000000
 Stoichiometry    H2O3
 Framework group  CS[SG(H2O3)]
 Deg. of freedom     7
 Full point group                 CS      NOp   2
 Largest Abelian subgroup         CS      NOp   2
 Largest concise Abelian subgroup C1      NOp   1
                         Standard orientation:                         
 ---------------------------------------------------------------------
 Center     Atomic      Atomic             Coordinates (Angstroms)
 Number     Number       Type             X           Y           Z
 ---------------------------------------------------------------------
      1          8           0        1.025435    1.209611    0.000000
      2          8           0        0.000000    0.452152    0.000000
      3          1           0       -0.806083   -0.397516    0.000000
      4          8           0       -0.928749   -1.430696    0.000000
      5          1           0        0.032590   -1.451022    0.000000
 ---------------------------------------------------------------------
 Rotational constants (GHZ):    210.3084763      5.5852934      5.4407987
 Standard basis: 6-31+G(d,p) (6D, 7F)
 There are    50 symmetry adapted basis functions of A'  symmetry.
 There are    17 symmetry adapted basis functions of A"  symmetry.
 Integral buffers will be    262144 words long.
 Raffenetti 2 integral format.
 Two-electron integral symmetry is turned on.
    67 basis functions,   110 primitive gaussians,    67 cartesian basis functions
    13 alpha electrons       13 beta electrons
       nuclear repulsion energy        70.9386928236 Hartrees.
 NAtoms=    5 NActive=    5 NUniq=    5 SFac= 7.50D-01 NAtFMM=   80 NAOKFM=F Big=F
 One-electron integrals computed using PRISM.
 NBasis=    67 RedAO= T  NBF=    50    17
 NBsUse=    67 1.00D-06 NBFU=    50    17
 Initial guess read from the read-write file.
 B after Tr=     0.000000    0.000000    0.000000
         Rot=    1.000000    0.000000    0.000000    0.000000 Ang=   0.00 deg.
 Initial guess orbital symmetries:
       Occupied  (A') (A') (A') (A') (A') (A') (A') (A') (A") (A')
                 (A') (A') (A")
       Virtual   (A") (A') (A') (A') (A") (A') (A') (A') (A") (A')
                 (A') (A") (A') (A') (A') (A') (A') (A') (A") (A')
                 (A') (A") (A') (A') (A") (A') (A') (A') (A") (A')
                 (A") (A') (A') (A") (A') (A") (A') (A") (A') (A')
                 (A') (A") (A') (A') (A") (A') (A') (A") (A') (A')
                 (A') (A') (A') (A')
 Harris functional with IExCor= 1009 diagonalized for initial guess.
 ExpMin= 8.45D-02 ExpMax= 5.48D+03 ExpMxC= 8.25D+02 IAcc=2 IRadAn=         0 AccDes= 0.00D+00
 HarFok:  IExCor= 1009 AccDes= 0.00D+00 IRadAn=         0 IDoV= 1
 ScaDFX=  1.000000  1.000000  1.000000  1.000000
 FoFCou: FMM=F IPFlag=           0 FMFlag=      100000 FMFlg1=           0
         NFxFlg=           0 DoJE=T BraDBF=F KetDBF=T FulRan=T
         Omega=  0.000000  0.000000  1.000000  0.000000  0.000000 ICntrl=     500 IOpCl=  0
         NMat0=    1 NMatS0=    1 NMatT0=    0 NMatD0=    1 NMtDS0=    0 NMtDT0=    0
         I1Cent=           4 NGrid=           0.
 Petite list used in FoFCou.
 Requested convergence on RMS density matrix=1.00D-08 within 128 cycles.
 Requested convergence on MAX density matrix=1.00D-06.
 Requested convergence on             energy=1.00D-06.
 No special actions if energy rises.
 Keep R1 ints in memory in canonical form, NReq=3551239.
 Integral accuracy reduced to 1.0D-05 until final iterations.
 Initial convergence to 1.0D-05 achieved.  Increase integral accuracy.
 SCF Done:  E(RM062X) =  -226.506084385     A.U. after   18 cycles
             Convg  =    0.7571D-08             -V/T =  2.0074
 Calling FoFJK, ICntrl=      2127 FMM=F ISym2X=1 I1Cent= 0 IOpClX= 0 NMat=1 NMatS=1 NMatT=0.
 ***** Axes restored to original set *****
 -------------------------------------------------------------------
 Center     Atomic                   Forces (Hartrees/Bohr)
 Number     Number              X              Y              Z
 -------------------------------------------------------------------
      1        8           0.083996291   -0.005817615    0.000000000
      2        8          -0.213638980   -0.037518480    0.000000000
      3        1           0.123490582    0.033075807    0.000000000
      4        8          -0.011076313   -0.020207941    0.000000000
      5        1           0.017228420    0.030468228    0.000000000
 -------------------------------------------------------------------
 Cartesian Forces:  Max     0.213638980 RMS     0.069396725

 GradGradGradGradGradGradGradGradGradGradGradGradGradGradGradGradGradGrad
 Berny optimization.
 Internal  Forces:  Max     0.135271150 RMS     0.060606841
 Search for a saddle point.
 Step number   2 out of a maximum of  100
 All quantities printed in internal units (Hartrees-Bohrs-Radians)
 Swaping is turned off.
 Update second derivatives using D2CorX and points    1    2
 The second derivative matrix:
                          R1        R2        R3        R4        A1
           R1           0.36811
           R2           0.05179   0.32135
           R3           0.02264   0.18409   0.36131
           R4          -0.00946  -0.01031  -0.00352   0.56144
           A1           0.02895   0.10497   0.09746  -0.02889   0.21207
           A2           0.00607   0.00983   0.08021   0.00566   0.04308
           A3           0.01523   0.04862   0.02451  -0.00743   0.05952
           A4           0.00000   0.00000   0.00000   0.00000   0.00000
           D1           0.00000   0.00000   0.00000   0.00000   0.00000
                          A2        A3        A4        D1
           A2           0.24050
           A3          -0.00466  -0.02162
           A4           0.00000   0.00000  -0.02923
           D1           0.00000   0.00000  -0.02758  -0.03221
     Eigenvalues ---   -0.05835  -0.03848  -0.00310   0.12247   0.17048
     Eigenvalues ---    0.24743   0.35819   0.55667   0.62640
 Eigenvectors required to have negative eigenvalues:
                          D1        A4        A3        A1        R1
   1                    0.72592   0.68778   0.00000   0.00000   0.00000
                          R2        A2        R3        R4
   1                    0.00000   0.00000   0.00000   0.00000
 RFO step:  Lambda0=1.734723476D-17 Lambda=-9.18983107D-02.
 Linear search not attempted -- option 19 set.
 Maximum step size (   0.300) exceeded in Quadratic search.
    -- Step size scaled by   0.283
 Iteration  1 RMS(Cart)=  0.07513925 RMS(Int)=  0.00716687
 Iteration  2 RMS(Cart)=  0.00653918 RMS(Int)=  0.00005045
 Iteration  3 RMS(Cart)=  0.00003062 RMS(Int)=  0.00000000
 Iteration  4 RMS(Cart)=  0.00000000 RMS(Int)=  0.00000000
 ClnCor:  largest displacement from symmetrization is 2.94D-02 for atom     3.
 Variable       Old X    -DE/DX   Delta X   Delta X   Delta X     New X
                                 (Linear)    (Quad)   (Total)
    R1        2.40913  -0.08398   0.00000  -0.06207  -0.06220   2.34694
    R2        2.21324   0.13527   0.00000   0.13165   0.13112   2.34436
    R3        1.96614   0.01169   0.00000  -0.05734  -0.05802   1.90812
    R4        1.81707   0.00489   0.00000   0.00348   0.00321   1.82028
    A1        2.50069   0.05806   0.00000   0.07104   0.07302   2.57370
    A2        1.47376   0.06298   0.00000   0.05136   0.05180   1.52556
    A3        2.96609   0.01450   0.00000  -0.19434  -0.19517   2.77092
    A4        3.14159   0.00000   0.00000  -0.10282   0.00000   3.14159
    D1        0.00000   0.00000   0.00000   0.09742   0.00000   0.00000
         Item               Value     Threshold  Converged?
 Maximum Force            0.135271     0.000450     NO 
 RMS     Force            0.060607     0.000300     NO 
 Maximum Displacement     0.181958     0.001800     NO 
 RMS     Displacement     0.074588     0.001200     NO 
 Predicted change in Energy=-2.530423D-02
 GradGradGradGradGradGradGradGradGradGradGradGradGradGradGradGradGradGrad

                          Input orientation:                          
 ---------------------------------------------------------------------
 Center     Atomic      Atomic             Coordinates (Angstroms)
 Number     Number       Type             X           Y           Z
 ---------------------------------------------------------------------
      1          8           0       -0.629635   -0.056037    0.000000
      2          8           0        0.604976   -0.190811    0.000000
      3          1           0        1.803244    0.130442    0.000000
      4          8           0        2.484816    0.875437    0.000000
      5          1           0        1.745441    1.492833    0.000000
 ---------------------------------------------------------------------
                    Distance matrix (angstroms):
                    1          2          3          4          5
     1  O    0.000000
     2  O    1.241945   0.000000
     3  H    2.440015   1.240584   0.000000
     4  O    3.250761   2.161177   1.009733   0.000000
     5  H    2.835487   2.033548   1.363617   0.963251   0.000000
 Stoichiometry    H2O3
 Framework group  CS[SG(H2O3)]
 Deg. of freedom     7
 Full point group                 CS      NOp   2
 Largest Abelian subgroup         CS      NOp   2
 Largest concise Abelian subgroup C1      NOp   1
                         Standard orientation:                         
 ---------------------------------------------------------------------
 Center     Atomic      Atomic             Coordinates (Angstroms)
 Number     Number       Type             X           Y           Z
 ---------------------------------------------------------------------
      1          8           0        1.110224    1.088342    0.000000
      2          8           0        0.000000    0.531719    0.000000
      3          1           0       -0.832279   -0.388260    0.000000
      4          8           0       -1.000620   -1.383861    0.000000
      5          1           0       -0.044559   -1.501341    0.000000
 ---------------------------------------------------------------------
 Rotational constants (GHZ):    147.9765961      5.6496912      5.4419207
 Standard basis: 6-31+G(d,p) (6D, 7F)
 There are    50 symmetry adapted basis functions of A'  symmetry.
 There are    17 symmetry adapted basis functions of A"  symmetry.
 Integral buffers will be    262144 words long.
 Raffenetti 2 integral format.
 Two-electron integral symmetry is turned on.
    67 basis functions,   110 primitive gaussians,    67 cartesian basis functions
    13 alpha electrons       13 beta electrons
       nuclear repulsion energy        71.0565096099 Hartrees.
 NAtoms=    5 NActive=    5 NUniq=    5 SFac= 7.50D-01 NAtFMM=   80 NAOKFM=F Big=F
 One-electron integrals computed using PRISM.
 NBasis=    67 RedAO= T  NBF=    50    17
 NBsUse=    67 1.00D-06 NBFU=    50    17
 Initial guess read from the read-write file.
 B after Tr=     0.000000    0.000000    0.000000
         Rot=    1.000000    0.000000    0.000000    0.000000 Ang=   0.00 deg.
 Initial guess orbital symmetries:
       Occupied  (A') (A') (A') (A') (A') (A') (A') (A') (A") (A')
                 (A') (A') (A")
       Virtual   (A") (A') (A') (A') (A") (A') (A') (A') (A") (A')
                 (A') (A") (A') (A') (A') (A') (A') (A') (A") (A')
                 (A') (A") (A') (A') (A') (A") (A') (A') (A") (A')
                 (A") (A') (A") (A') (A') (A") (A') (A") (A') (A')
                 (A') (A") (A') (A') (A") (A') (A') (A") (A') (A')
                 (A') (A') (A') (A')
 Harris functional with IExCor= 1009 diagonalized for initial guess.
 ExpMin= 8.45D-02 ExpMax= 5.48D+03 ExpMxC= 8.25D+02 IAcc=2 IRadAn=         0 AccDes= 0.00D+00
 HarFok:  IExCor= 1009 AccDes= 0.00D+00 IRadAn=         0 IDoV= 1
 ScaDFX=  1.000000  1.000000  1.000000  1.000000
 FoFCou: FMM=F IPFlag=           0 FMFlag=      100000 FMFlg1=           0
         NFxFlg=           0 DoJE=T BraDBF=F KetDBF=T FulRan=T
         Omega=  0.000000  0.000000  1.000000  0.000000  0.000000 ICntrl=     500 IOpCl=  0
         NMat0=    1 NMatS0=    1 NMatT0=    0 NMatD0=    1 NMtDS0=    0 NMtDT0=    0
         I1Cent=           4 NGrid=           0.
 Petite list used in FoFCou.
 Requested convergence on RMS density matrix=1.00D-08 within 128 cycles.
 Requested convergence on MAX density matrix=1.00D-06.
 Requested convergence on             energy=1.00D-06.
 No special actions if energy rises.
 Keep R1 ints in memory in canonical form, NReq=3551239.
 Integral accuracy reduced to 1.0D-05 until final iterations.
 Initial convergence to 1.0D-05 achieved.  Increase integral accuracy.
 SCF Done:  E(RM062X) =  -226.530829334     A.U. after   18 cycles
             Convg  =    0.8002D-08             -V/T =  2.0073
 Calling FoFJK, ICntrl=      2127 FMM=F ISym2X=1 I1Cent= 0 IOpClX= 0 NMat=1 NMatS=1 NMatT=0.
 ***** Axes restored to original set *****
 -------------------------------------------------------------------
 Center     Atomic                   Forces (Hartrees/Bohr)
 Number     Number              X              Y              Z
 -------------------------------------------------------------------
      1        8           0.055336146   -0.008115202    0.000000000
      2        8          -0.158072588   -0.038060579    0.000000000
      3        1           0.093374436    0.031999970    0.000000000
      4        8          -0.005886879   -0.010274921    0.000000000
      5        1           0.015248884    0.024450733    0.000000000
 -------------------------------------------------------------------
 Cartesian Forces:  Max     0.158072588 RMS     0.051818192

 GradGradGradGradGradGradGradGradGradGradGradGradGradGradGradGradGradGrad
 Berny optimization.
 Internal  Forces:  Max     0.111194342 RMS     0.047968563
 Search for a saddle point.
 Step number   3 out of a maximum of  100
 All quantities printed in internal units (Hartrees-Bohrs-Radians)
 Swaping is turned off.
 Update second derivatives using D2CorX and points    1    2    3
 The second derivative matrix:
                          R1        R2        R3        R4        A1
           R1           0.39187
           R2           0.04145   0.30816
           R3           0.05085   0.16857   0.39422
           R4          -0.00990  -0.01044  -0.00410   0.56144
           A1           0.02240   0.09807   0.08788  -0.02895   0.20850
           A2           0.00300   0.00361   0.07518   0.00558   0.03976
           A3           0.04082   0.05782   0.05864  -0.00753   0.06366
           A4           0.00000   0.00000   0.00000   0.00000   0.00000
           D1           0.00000   0.00000   0.00000   0.00000   0.00000
                          A2        A3        A4        D1
           A2           0.23768
           A3           0.00071  -0.01743
           A4           0.00000   0.00000  -0.02923
           D1           0.00000   0.00000  -0.02758  -0.03221
     Eigenvalues ---   -0.05835  -0.04118  -0.00310   0.13019   0.18600
     Eigenvalues ---    0.24987   0.37120   0.55688   0.63147
 Eigenvectors required to have negative eigenvalues:
                          D1        A4        A3        R1        A1
   1                    0.72592   0.68778   0.00000   0.00000   0.00000
                          R3        R2        A2        R4
   1                    0.00000   0.00000   0.00000   0.00000
 RFO step:  Lambda0=0.000000000D+00 Lambda=-6.10939156D-02.
 Linear search not attempted -- option 19 set.
 Maximum step size (   0.300) exceeded in Quadratic search.
    -- Step size scaled by   0.298
 Iteration  1 RMS(Cart)=  0.07724369 RMS(Int)=  0.01010924
 Iteration  2 RMS(Cart)=  0.01215713 RMS(Int)=  0.00010868
 Iteration  3 RMS(Cart)=  0.00008292 RMS(Int)=  0.00000000
 Iteration  4 RMS(Cart)=  0.00000001 RMS(Int)=  0.00000000
 ClnCor:  largest displacement from symmetrization is 2.90D-02 for atom     3.
 Variable       Old X    -DE/DX   Delta X   Delta X   Delta X     New X
                                 (Linear)    (Quad)   (Total)
    R1        2.34694  -0.05588   0.00000  -0.02889  -0.02904   2.31790
    R2        2.34436   0.11119   0.00000   0.11976   0.11925   2.46361
    R3        1.90812   0.01677   0.00000  -0.02236  -0.02298   1.88514
    R4        1.82028   0.00396   0.00000   0.00323   0.00305   1.82333
    A1        2.57370   0.04693   0.00000   0.06353   0.06557   2.63927
    A2        1.52556   0.05196   0.00000   0.04785   0.04820   1.57377
    A3        2.77092   0.00480   0.00000  -0.21413  -0.21496   2.55596
    A4        3.14159   0.00000   0.00000  -0.10800   0.00000   3.14159
    D1        0.00000   0.00000   0.00000   0.10232   0.00000   0.00000
         Item               Value     Threshold  Converged?
 Maximum Force            0.111194     0.000450     NO 
 RMS     Force            0.047969     0.000300     NO 
 Maximum Displacement     0.203087     0.001800     NO 
 RMS     Displacement     0.082212     0.001200     NO 
 Predicted change in Energy=-1.804025D-02
 GradGradGradGradGradGradGradGradGradGradGradGradGradGradGradGradGradGrad

                          Input orientation:                          
 ---------------------------------------------------------------------
 Center     Atomic      Atomic             Coordinates (Angstroms)
 Number     Number       Type             X           Y           Z
 ---------------------------------------------------------------------
      1          8           0       -0.608422   -0.002884    0.000000
      2          8           0        0.582055   -0.298280    0.000000
      3          1           0        1.810061    0.139442    0.000000
      4          8           0        2.472382    0.885420    0.000000
      5          1           0        1.752767    1.528166    0.000000
 ---------------------------------------------------------------------
                    Distance matrix (angstroms):
                    1          2          3          4          5
     1  O    0.000000
     2  O    1.226578   0.000000
     3  H    2.422668   1.303687   0.000000
     4  O    3.206312   2.230355   0.997573   0.000000
     5  H    2.814130   2.169441   1.389906   0.964867   0.000000
 Stoichiometry    H2O3
 Framework group  CS[SG(H2O3)]
 Deg. of freedom     7
 Full point group                 CS      NOp   2
 Largest Abelian subgroup         CS      NOp   2
 Largest concise Abelian subgroup C1      NOp   1
                         Standard orientation:                         
 ---------------------------------------------------------------------
 Center     Atomic      Atomic             Coordinates (Angstroms)
 Number     Number       Type             X           Y           Z
 ---------------------------------------------------------------------
      1          8           0        1.181211    0.953873    0.000000
      2          8           0        0.000000    0.623366    0.000000
      3          1           0       -0.852100   -0.363308    0.000000
      4          8           0       -1.060072   -1.338961    0.000000
      5          1           0       -0.117008   -1.542917    0.000000
 ---------------------------------------------------------------------
 Rotational constants (GHZ):    102.6947297      5.7427613      5.4386293
 Standard basis: 6-31+G(d,p) (6D, 7F)
 There are    50 symmetry adapted basis functions of A'  symmetry.
 There are    17 symmetry adapted basis functions of A"  symmetry.
 Integral buffers will be    262144 words long.
 Raffenetti 2 integral format.
 Two-electron integral symmetry is turned on.
    67 basis functions,   110 primitive gaussians,    67 cartesian basis functions
    13 alpha electrons       13 beta electrons
       nuclear repulsion energy        70.8211118547 Hartrees.
 NAtoms=    5 NActive=    5 NUniq=    5 SFac= 7.50D-01 NAtFMM=   80 NAOKFM=F Big=F
 One-electron integrals computed using PRISM.
 NBasis=    67 RedAO= T  NBF=    50    17
 NBsUse=    67 1.00D-06 NBFU=    50    17
 Initial guess read from the read-write file.
 B after Tr=     0.000000    0.000000    0.000000
         Rot=    1.000000    0.000000    0.000000    0.000000 Ang=   0.00 deg.
 Initial guess orbital symmetries:
       Occupied  (A') (A') (A') (A') (A') (A') (A') (A') (A") (A')
                 (A') (A') (A")
       Virtual   (A") (A') (A') (A') (A") (A') (A') (A') (A") (A')
                 (A') (A") (A') (A') (A') (A') (A') (A') (A') (A")
                 (A') (A") (A') (A') (A') (A") (A') (A') (A") (A')
                 (A") (A') (A') (A") (A') (A") (A') (A") (A') (A')
                 (A') (A") (A') (A") (A') (A') (A") (A') (A') (A')
                 (A') (A') (A') (A')
 Harris functional with IExCor= 1009 diagonalized for initial guess.
 ExpMin= 8.45D-02 ExpMax= 5.48D+03 ExpMxC= 8.25D+02 IAcc=2 IRadAn=         0 AccDes= 0.00D+00
 HarFok:  IExCor= 1009 AccDes= 0.00D+00 IRadAn=         0 IDoV= 1
 ScaDFX=  1.000000  1.000000  1.000000  1.000000
 FoFCou: FMM=F IPFlag=           0 FMFlag=      100000 FMFlg1=           0
         NFxFlg=           0 DoJE=T BraDBF=F KetDBF=T FulRan=T
         Omega=  0.000000  0.000000  1.000000  0.000000  0.000000 ICntrl=     500 IOpCl=  0
         NMat0=    1 NMatS0=    1 NMatT0=    0 NMatD0=    1 NMtDS0=    0 NMtDT0=    0
         I1Cent=           4 NGrid=           0.
 Petite list used in FoFCou.
 Requested convergence on RMS density matrix=1.00D-08 within 128 cycles.
 Requested convergence on MAX density matrix=1.00D-06.
 Requested convergence on             energy=1.00D-06.
 No special actions if energy rises.
 Keep R1 ints in memory in canonical form, NReq=3551239.
 Integral accuracy reduced to 1.0D-05 until final iterations.
 Initial convergence to 1.0D-05 achieved.  Increase integral accuracy.
 SCF Done:  E(RM062X) =  -226.548701339     A.U. after   17 cycles
             Convg  =    0.5869D-08             -V/T =  2.0073
 Calling FoFJK, ICntrl=      2127 FMM=F ISym2X=1 I1Cent= 0 IOpClX= 0 NMat=1 NMatS=1 NMatT=0.
 ***** Axes restored to original set *****
 -------------------------------------------------------------------
 Center     Atomic                   Forces (Hartrees/Bohr)
 Number     Number              X              Y              Z
 -------------------------------------------------------------------
      1        8           0.040906083   -0.008736836    0.000000000
      2        8          -0.118278409   -0.036031259    0.000000000
      3        1           0.068440528    0.030391631    0.000000000
      4        8          -0.004314166   -0.004702982    0.000000000
      5        1           0.013245964    0.019079446    0.000000000
 -------------------------------------------------------------------
 Cartesian Forces:  Max     0.118278409 RMS     0.039349410

 GradGradGradGradGradGradGradGradGradGradGradGradGradGradGradGradGradGrad
 Berny optimization.
 Internal  Forces:  Max     0.087913531 RMS     0.037835048
 Search for a saddle point.
 Step number   4 out of a maximum of  100
 All quantities printed in internal units (Hartrees-Bohrs-Radians)
 Swaping is turned off.
 Update second derivatives using D2CorX and points    2    3    4
 The second derivative matrix:
                          R1        R2        R3        R4        A1
           R1           0.39104
           R2           0.04423   0.29883
           R3           0.05300   0.16173   0.40430
           R4          -0.00998  -0.01021  -0.00470   0.56147
           A1           0.02358   0.09403   0.08311  -0.02875   0.20697
           A2           0.00479  -0.00229   0.07437   0.00555   0.03678
           A3           0.03967   0.06223   0.08085  -0.00862   0.06329
           A4           0.00000   0.00000   0.00000   0.00000   0.00000
           D1           0.00000   0.00000   0.00000   0.00000   0.00000
                          A2        A3        A4        D1
           A2           0.23476
           A3           0.00792   0.00428
           A4           0.00000   0.00000  -0.02923
           D1           0.00000   0.00000  -0.02758  -0.03221
     Eigenvalues ---   -0.05835  -0.02465  -0.00310   0.12915   0.18902
     Eigenvalues ---    0.25134   0.36697   0.55685   0.63296
 Eigenvectors required to have negative eigenvalues:
                          D1        A4        A3        R1        R3
   1                    0.72592   0.68778   0.00000   0.00000   0.00000
                          A2        R2        A1        R4
   1                    0.00000   0.00000   0.00000   0.00000
 RFO step:  Lambda0=3.469446952D-18 Lambda=-4.72284369D-02.
 Linear search not attempted -- option 19 set.
 Maximum step size (   0.300) exceeded in Quadratic search.
    -- Step size scaled by   0.306
 Iteration  1 RMS(Cart)=  0.07857847 RMS(Int)=  0.01237752
 Iteration  2 RMS(Cart)=  0.01708840 RMS(Int)=  0.00020427
 Iteration  3 RMS(Cart)=  0.00015979 RMS(Int)=  0.00000001
 Iteration  4 RMS(Cart)=  0.00000002 RMS(Int)=  0.00000000
 ClnCor:  largest displacement from symmetrization is 2.81D-02 for atom     3.
 Variable       Old X    -DE/DX   Delta X   Delta X   Delta X     New X
                                 (Linear)    (Quad)   (Total)
    R1        2.31790  -0.04180   0.00000  -0.02299  -0.02315   2.29475
    R2        2.46361   0.08791   0.00000   0.10670   0.10624   2.56985
    R3        1.88514   0.01668   0.00000  -0.00230  -0.00282   1.88232
    R4        1.82333   0.00282   0.00000   0.00195   0.00185   1.82518
    A1        2.63927   0.03666   0.00000   0.05712   0.05912   2.69839
    A2        1.57377   0.04204   0.00000   0.04612   0.04639   1.62015
    A3        2.55596  -0.00320   0.00000  -0.22196  -0.22275   2.33322
    A4        3.14159   0.00000   0.00000  -0.11110   0.00000   3.14159
    D1        0.00000   0.00000   0.00000   0.10526   0.00000   0.00000
         Item               Value     Threshold  Converged?
 Maximum Force            0.087914     0.000450     NO 
 RMS     Force            0.037835     0.000300     NO 
 Maximum Displacement     0.205490     0.001800     NO 
 RMS     Displacement     0.088636     0.001200     NO 
 Predicted change in Energy=-1.424883D-02
 GradGradGradGradGradGradGradGradGradGradGradGradGradGradGradGradGradGrad

                          Input orientation:                          
 ---------------------------------------------------------------------
 Center     Atomic      Atomic             Coordinates (Angstroms)
 Number     Number       Type             X           Y           Z
 ---------------------------------------------------------------------
      1          8           0       -0.562618    0.057588    0.000000
      2          8           0        0.559314   -0.407021    0.000000
      3          1           0        1.803369    0.142225    0.000000
      4          8           0        2.454032    0.896424    0.000000
      5          1           0        1.754746    1.562648    0.000000
 ---------------------------------------------------------------------
                    Distance matrix (angstroms):
                    1          2          3          4          5
     1  O    0.000000
     2  O    1.214328   0.000000
     3  H    2.367501   1.359906   0.000000
     4  O    3.131106   2.299766   0.996081   0.000000
     5  H    2.763220   2.304051   1.421255   0.965845   0.000000
 Stoichiometry    H2O3
 Framework group  CS[SG(H2O3)]
 Deg. of freedom     7
 Full point group                 CS      NOp   2
 Largest Abelian subgroup         CS      NOp   2
 Largest concise Abelian subgroup C1      NOp   1
                         Standard orientation:                         
 ---------------------------------------------------------------------
 Center     Atomic      Atomic             Coordinates (Angstroms)
 Number     Number       Type             X           Y           Z
 ---------------------------------------------------------------------
      1          8           0        1.209958    0.824533    0.000000
      2          8           0        0.000000    0.721604    0.000000
      3          1           0       -0.852515   -0.337906    0.000000
      4          8           0       -1.083821   -1.306759    0.000000
      5          1           0       -0.156588   -1.577120    0.000000
 ---------------------------------------------------------------------
 Rotational constants (GHZ):     74.6224320      5.9291844      5.4927534
 Standard basis: 6-31+G(d,p) (6D, 7F)
 There are    50 symmetry adapted basis functions of A'  symmetry.
 There are    17 symmetry adapted basis functions of A"  symmetry.
 Integral buffers will be    262144 words long.
 Raffenetti 2 integral format.
 Two-electron integral symmetry is turned on.
    67 basis functions,   110 primitive gaussians,    67 cartesian basis functions
    13 alpha electrons       13 beta electrons
       nuclear repulsion energy        70.7087411648 Hartrees.
 NAtoms=    5 NActive=    5 NUniq=    5 SFac= 7.50D-01 NAtFMM=   80 NAOKFM=F Big=F
 One-electron integrals computed using PRISM.
 NBasis=    67 RedAO= T  NBF=    50    17
 NBsUse=    67 1.00D-06 NBFU=    50    17
 Initial guess read from the read-write file.
 B after Tr=     0.000000    0.000000    0.000000
         Rot=    1.000000    0.000000    0.000000    0.000000 Ang=   0.00 deg.
 Initial guess orbital symmetries:
       Occupied  (A') (A') (A') (A') (A') (A') (A') (A') (A") (A')
                 (A') (A') (A")
       Virtual   (A") (A') (A') (A') (A") (A') (A') (A") (A') (A')
                 (A") (A') (A') (A') (A') (A') (A') (A') (A') (A")
                 (A') (A") (A') (A') (A") (A') (A') (A') (A") (A')
                 (A") (A') (A') (A") (A') (A") (A') (A") (A') (A')
                 (A') (A") (A') (A') (A") (A') (A") (A') (A') (A')
                 (A') (A') (A') (A')
 Harris functional with IExCor= 1009 diagonalized for initial guess.
 ExpMin= 8.45D-02 ExpMax= 5.48D+03 ExpMxC= 8.25D+02 IAcc=2 IRadAn=         0 AccDes= 0.00D+00
 HarFok:  IExCor= 1009 AccDes= 0.00D+00 IRadAn=         0 IDoV= 1
 ScaDFX=  1.000000  1.000000  1.000000  1.000000
 FoFCou: FMM=F IPFlag=           0 FMFlag=      100000 FMFlg1=           0
         NFxFlg=           0 DoJE=T BraDBF=F KetDBF=T FulRan=T
         Omega=  0.000000  0.000000  1.000000  0.000000  0.000000 ICntrl=     500 IOpCl=  0
         NMat0=    1 NMatS0=    1 NMatT0=    0 NMatD0=    1 NMtDS0=    0 NMtDT0=    0
         I1Cent=           4 NGrid=           0.
 Petite list used in FoFCou.
 Requested convergence on RMS density matrix=1.00D-08 within 128 cycles.
 Requested convergence on MAX density matrix=1.00D-06.
 Requested convergence on             energy=1.00D-06.
 No special actions if energy rises.
 Keep R1 ints in memory in canonical form, NReq=3551239.
 Integral accuracy reduced to 1.0D-05 until final iterations.
 Initial convergence to 1.0D-05 achieved.  Increase integral accuracy.
 SCF Done:  E(RM062X) =  -226.562874384     A.U. after   17 cycles
             Convg  =    0.8309D-08             -V/T =  2.0074
 Calling FoFJK, ICntrl=      2127 FMM=F ISym2X=1 I1Cent= 0 IOpClX= 0 NMat=1 NMatS=1 NMatT=0.
 ***** Axes restored to original set *****
 -------------------------------------------------------------------
 Center     Atomic                   Forces (Hartrees/Bohr)
 Number     Number              X              Y              Z
 -------------------------------------------------------------------
      1        8           0.027942988   -0.007351888    0.000000000
      2        8          -0.085014613   -0.033202503    0.000000000
      3        1           0.052037479    0.029136053    0.000000000
      4        8          -0.006484097   -0.003368769    0.000000000
      5        1           0.011518243    0.014787106    0.000000000
 -------------------------------------------------------------------
 Cartesian Forces:  Max     0.085014613 RMS     0.029581842

 GradGradGradGradGradGradGradGradGradGradGradGradGradGradGradGradGradGrad
 Berny optimization.
 Internal  Forces:  Max     0.068588783 RMS     0.029149131
 Search for a saddle point.
 Step number   5 out of a maximum of  100
 All quantities printed in internal units (Hartrees-Bohrs-Radians)
 Swaping is turned off.
 Update second derivatives using D2CorX and points    3    4    5
 The second derivative matrix:
                          R1        R2        R3        R4        A1
           R1           0.39235
           R2           0.04369   0.29139
           R3           0.05339   0.16160   0.40442
           R4          -0.01019  -0.00998  -0.00477   0.56150
           A1           0.02217   0.09199   0.08269  -0.02847   0.20760
           A2           0.00555  -0.00733   0.07462   0.00552   0.03434
           A3           0.04547   0.06844   0.08256  -0.00971   0.05995
           A4           0.00000   0.00000   0.00000   0.00000   0.00000
           D1           0.00000   0.00000   0.00000   0.00000   0.00000
                          A2        A3        A4        D1
           A2           0.23230
           A3           0.01662   0.02038
           A4           0.00000   0.00000  -0.02923
           D1           0.00000   0.00000  -0.02758  -0.03221
     Eigenvalues ---   -0.05835  -0.01028  -0.00310   0.12407   0.18704
     Eigenvalues ---    0.25208   0.36771   0.55675   0.63257
 Eigenvectors required to have negative eigenvalues:
                          D1        A4        A3        R1        R3
   1                    0.72592   0.68778   0.00000   0.00000   0.00000
                          A1        A2        R2        R4
   1                    0.00000   0.00000   0.00000   0.00000
 RFO step:  Lambda0=0.000000000D+00 Lambda=-3.83351027D-02.
 Linear search not attempted -- option 19 set.
 Maximum step size (   0.300) exceeded in Quadratic search.
    -- Step size scaled by   0.258
 Iteration  1 RMS(Cart)=  0.08022400 RMS(Int)=  0.01965810
 Iteration  2 RMS(Cart)=  0.03279938 RMS(Int)=  0.00075004
 Iteration  3 RMS(Cart)=  0.00056962 RMS(Int)=  0.00000006
 Iteration  4 RMS(Cart)=  0.00000011 RMS(Int)=  0.00000000
 ClnCor:  largest displacement from symmetrization is 2.22D-02 for atom     3.
 Variable       Old X    -DE/DX   Delta X   Delta X   Delta X     New X
                                 (Linear)    (Quad)   (Total)
    R1        2.29475  -0.02863   0.00000  -0.00354  -0.00365   2.29110
    R2        2.56985   0.06859   0.00000   0.09108   0.09079   2.66064
    R3        1.88232   0.01193   0.00000   0.00431   0.00401   1.88633
    R4        1.82518   0.00186   0.00000   0.00021   0.00018   1.82536
    A1        2.69839   0.02717   0.00000   0.04900   0.05031   2.74870
    A2        1.62015   0.03404   0.00000   0.04276   0.04288   1.66304
    A3        2.33322  -0.00894   0.00000  -0.24670  -0.24721   2.08601
    A4        3.14159   0.00000   0.00000  -0.09349   0.00000   3.14159
    D1        0.00000   0.00000   0.00000   0.08858   0.00000   0.00000
         Item               Value     Threshold  Converged?
 Maximum Force            0.068589     0.000450     NO 
 RMS     Force            0.029149     0.000300     NO 
 Maximum Displacement     0.210619     0.001800     NO 
 RMS     Displacement     0.105492     0.001200     NO 
 Predicted change in Energy=-1.107622D-02
 GradGradGradGradGradGradGradGradGradGradGradGradGradGradGradGradGradGrad

                          Input orientation:                          
 ---------------------------------------------------------------------
 Center     Atomic      Atomic             Coordinates (Angstroms)
 Number     Number       Type             X           Y           Z
 ---------------------------------------------------------------------
      1          8           0       -0.480132    0.135962    0.000000
      2          8           0        0.540466   -0.518475    0.000000
      3          1           0        1.785782    0.138423    0.000000
      4          8           0        2.423099    0.906691    0.000000
      5          1           0        1.739628    1.589264    0.000000
 ---------------------------------------------------------------------
                    Distance matrix (angstroms):
                    1          2          3          4          5
     1  O    0.000000
     2  O    1.212398   0.000000
     3  H    2.265915   1.407951   0.000000
     4  O    3.003793   2.361229   0.998203   0.000000
     5  H    2.653190   2.424985   1.451575   0.965938   0.000000
 Stoichiometry    H2O3
 Framework group  CS[SG(H2O3)]
 Deg. of freedom     7
 Full point group                 CS      NOp   2
 Largest Abelian subgroup         CS      NOp   2
 Largest concise Abelian subgroup C1      NOp   1
                         Standard orientation:                         
 ---------------------------------------------------------------------
 Center     Atomic      Atomic             Coordinates (Angstroms)
 Number     Number       Type             X           Y           Z
 ---------------------------------------------------------------------
      1          8           0        1.203462    0.681256    0.000000
      2          8           0        0.000000    0.828189    0.000000
      3          1           0       -0.837092   -0.303890    0.000000
      4          8           0       -1.078057   -1.272572    0.000000
      5          1           0       -0.166147   -1.591097    0.000000
 ---------------------------------------------------------------------
 Rotational constants (GHZ):     55.7845326      6.2951394      5.6567858
 Standard basis: 6-31+G(d,p) (6D, 7F)
 There are    50 symmetry adapted basis functions of A'  symmetry.
 There are    17 symmetry adapted basis functions of A"  symmetry.
 Integral buffers will be    262144 words long.
 Raffenetti 2 integral format.
 Two-electron integral symmetry is turned on.
    67 basis functions,   110 primitive gaussians,    67 cartesian basis functions
    13 alpha electrons       13 beta electrons
       nuclear repulsion energy        70.7568671314 Hartrees.
 NAtoms=    5 NActive=    5 NUniq=    5 SFac= 7.50D-01 NAtFMM=   80 NAOKFM=F Big=F
 One-electron integrals computed using PRISM.
 NBasis=    67 RedAO= T  NBF=    50    17
 NBsUse=    67 1.00D-06 NBFU=    50    17
 Initial guess read from the read-write file.
 B after Tr=     0.000000    0.000000    0.000000
         Rot=    1.000000    0.000000    0.000000    0.000000 Ang=   0.00 deg.
 Initial guess orbital symmetries:
       Occupied  (A') (A') (A') (A') (A') (A') (A') (A') (A") (A')
                 (A') (A') (A")
       Virtual   (A") (A') (A') (A') (A") (A') (A') (A") (A') (A")
                 (A') (A') (A') (A') (A') (A') (A') (A') (A') (A")
                 (A') (A') (A") (A') (A") (A') (A') (A') (A") (A')
                 (A") (A') (A') (A') (A") (A") (A') (A") (A') (A')
                 (A') (A') (A") (A') (A") (A') (A") (A') (A') (A')
                 (A') (A') (A') (A')
 Harris functional with IExCor= 1009 diagonalized for initial guess.
 ExpMin= 8.45D-02 ExpMax= 5.48D+03 ExpMxC= 8.25D+02 IAcc=2 IRadAn=         0 AccDes= 0.00D+00
 HarFok:  IExCor= 1009 AccDes= 0.00D+00 IRadAn=         0 IDoV= 1
 ScaDFX=  1.000000  1.000000  1.000000  1.000000
 FoFCou: FMM=F IPFlag=           0 FMFlag=      100000 FMFlg1=           0
         NFxFlg=           0 DoJE=T BraDBF=F KetDBF=T FulRan=T
         Omega=  0.000000  0.000000  1.000000  0.000000  0.000000 ICntrl=     500 IOpCl=  0
         NMat0=    1 NMatS0=    1 NMatT0=    0 NMatD0=    1 NMtDS0=    0 NMtDT0=    0
         I1Cent=           4 NGrid=           0.
 Petite list used in FoFCou.
 Requested convergence on RMS density matrix=1.00D-08 within 128 cycles.
 Requested convergence on MAX density matrix=1.00D-06.
 Requested convergence on             energy=1.00D-06.
 No special actions if energy rises.
 Keep R1 ints in memory in canonical form, NReq=3551239.
 Integral accuracy reduced to 1.0D-05 until final iterations.
 Initial convergence to 1.0D-05 achieved.  Increase integral accuracy.
 SCF Done:  E(RM062X) =  -226.573390021     A.U. after   17 cycles
             Convg  =    0.4365D-08             -V/T =  2.0076
 Calling FoFJK, ICntrl=      2127 FMM=F ISym2X=1 I1Cent= 0 IOpClX= 0 NMat=1 NMatS=1 NMatT=0.
 ***** Axes restored to original set *****
 -------------------------------------------------------------------
 Center     Atomic                   Forces (Hartrees/Bohr)
 Number     Number              X              Y              Z
 -------------------------------------------------------------------
      1        8           0.026503350   -0.012410551    0.000000000
      2        8          -0.069179461   -0.022035196    0.000000000
      3        1           0.042708838    0.026608252    0.000000000
      4        8          -0.010323170   -0.004001943    0.000000000
      5        1           0.010290443    0.011839437    0.000000000
 -------------------------------------------------------------------
 Cartesian Forces:  Max     0.069179461 RMS     0.024533636

 GradGradGradGradGradGradGradGradGradGradGradGradGradGradGradGradGradGrad
 Berny optimization.
 Internal  Forces:  Max     0.053818074 RMS     0.023654333
 Search for a saddle point.
 Step number   6 out of a maximum of  100
 All quantities printed in internal units (Hartrees-Bohrs-Radians)
 Swaping is turned off.
 Update second derivatives using D2CorX and points    4    5    6
 The second derivative matrix:
                          R1        R2        R3        R4        A1
           R1           0.40048
           R2           0.05194   0.29053
           R3           0.05696   0.16468   0.40596
           R4          -0.00970  -0.00958  -0.00456   0.56153
           A1           0.02922   0.09379   0.08548  -0.02811   0.21061
           A2           0.00709  -0.00981   0.07506   0.00556   0.03332
           A3           0.01978   0.06624   0.07266  -0.01100   0.05152
           A4           0.00000   0.00000   0.00000   0.00000   0.00000
           D1           0.00000   0.00000   0.00000   0.00000   0.00000
                          A2        A3        A4        D1
           A2           0.23082
           A3           0.02222   0.03983
           A4           0.00000   0.00000  -0.02923
           D1           0.00000   0.00000  -0.02758  -0.03221
     Eigenvalues ---   -0.05835  -0.00310   0.01535   0.12138   0.18603
     Eigenvalues ---    0.25223   0.37072   0.55731   0.63674
 Eigenvectors required to have negative eigenvalues:
                          D1        A4        R1        A1        R3
   1                    0.72592   0.68778   0.00000   0.00000   0.00000
                          A3        A2        R2        R4
   1                    0.00000   0.00000   0.00000   0.00000
 RFO step:  Lambda0=6.938893904D-18 Lambda=-2.75324050D-02.
 Linear search not attempted -- option 19 set.
 Maximum step size (   0.300) exceeded in Quadratic search.
    -- Step size scaled by   0.320
 Iteration  1 RMS(Cart)=  0.06638222 RMS(Int)=  0.00537134
 Iteration  2 RMS(Cart)=  0.00542341 RMS(Int)=  0.00002329
 Iteration  3 RMS(Cart)=  0.00001357 RMS(Int)=  0.00000000
 Iteration  4 RMS(Cart)=  0.00000000 RMS(Int)=  0.00000000
 ClnCor:  largest displacement from symmetrization is 4.05D-02 for atom     3.
 Variable       Old X    -DE/DX   Delta X   Delta X   Delta X     New X
                                 (Linear)    (Quad)   (Total)
    R1        2.29110  -0.02900   0.00000  -0.02641  -0.02677   2.26433
    R2        2.66064   0.05382   0.00000   0.09170   0.09081   2.75145
    R3        1.88633   0.00601   0.00000  -0.01696  -0.01789   1.86844
    R4        1.82536   0.00107   0.00000  -0.00059  -0.00065   1.82471
    A1        2.74870   0.01914   0.00000   0.02173   0.02608   2.77478
    A2        1.66304   0.02857   0.00000   0.05379   0.05413   1.71716
    A3        2.08601  -0.00887   0.00000  -0.14067  -0.14235   1.94365
    A4        3.14159   0.00000   0.00000  -0.17400   0.00000   3.14159
    D1        0.00000   0.00000   0.00000   0.16485   0.00000   0.00000
         Item               Value     Threshold  Converged?
 Maximum Force            0.053818     0.000450     NO 
 RMS     Force            0.023654     0.000300     NO 
 Maximum Displacement     0.123316     0.001800     NO 
 RMS     Displacement     0.066414     0.001200     NO 
 Predicted change in Energy=-7.891663D-03
 GradGradGradGradGradGradGradGradGradGradGradGradGradGradGradGradGradGrad

                          Input orientation:                          
 ---------------------------------------------------------------------
 Center     Atomic      Atomic             Coordinates (Angstroms)
 Number     Number       Type             X           Y           Z
 ---------------------------------------------------------------------
      1          8           0       -0.422335    0.166923    0.000000
      2          8           0        0.511622   -0.583731    0.000000
      3          1           0        1.774502    0.140896    0.000000
      4          8           0        2.398559    0.907805    0.000000
      5          1           0        1.746495    1.619972    0.000000
 ---------------------------------------------------------------------
                    Distance matrix (angstroms):
                    1          2          3          4          5
     1  O    0.000000
     2  O    1.198231   0.000000
     3  H    2.196991   1.456005   0.000000
     4  O    2.916564   2.405246   0.988734   0.000000
     5  H    2.610589   2.526107   1.479341   0.965593   0.000000
 Stoichiometry    H2O3
 Framework group  CS[SG(H2O3)]
 Deg. of freedom     7
 Full point group                 CS      NOp   2
 Largest Abelian subgroup         CS      NOp   2
 Largest concise Abelian subgroup C1      NOp   1
                         Standard orientation:                         
 ---------------------------------------------------------------------
 Center     Atomic      Atomic             Coordinates (Angstroms)
 Number     Number       Type             X           Y           Z
 ---------------------------------------------------------------------
      1          8           0       -0.169212   -1.313410    0.000000
      2          8           0       -0.833940   -0.316467    0.000000
      3          1           0        0.000000    0.877055    0.000000
      4          8           0        0.819309    1.430524    0.000000
      5          1           0        1.470742    0.717778    0.000000
 ---------------------------------------------------------------------
 Rotational constants (GHZ):     49.7889772      6.5230419      5.7674292
 Standard basis: 6-31+G(d,p) (6D, 7F)
 There are    50 symmetry adapted basis functions of A'  symmetry.
 There are    17 symmetry adapted basis functions of A"  symmetry.
 Integral buffers will be    262144 words long.
 Raffenetti 2 integral format.
 Two-electron integral symmetry is turned on.
    67 basis functions,   110 primitive gaussians,    67 cartesian basis functions
    13 alpha electrons       13 beta electrons
       nuclear repulsion energy        71.1127347901 Hartrees.
 NAtoms=    5 NActive=    5 NUniq=    5 SFac= 7.50D-01 NAtFMM=   80 NAOKFM=F Big=F
 One-electron integrals computed using PRISM.
 NBasis=    67 RedAO= T  NBF=    50    17
 NBsUse=    67 1.00D-06 NBFU=    50    17
 Initial guess read from the read-write file.
 B after Tr=     0.000000    0.000000    0.000000
         Rot=    1.000000    0.000000    0.000000    0.000000 Ang=   0.00 deg.
 Initial guess orbital symmetries:
       Occupied  (A') (A') (A') (A') (A') (A') (A') (A') (A") (A')
                 (A') (A') (A")
       Virtual   (A") (A') (A') (A') (A") (A') (A') (A") (A') (A")
                 (A') (A') (A') (A') (A') (A') (A') (A') (A') (A")
                 (A') (A') (A") (A') (A") (A') (A') (A') (A') (A")
                 (A") (A') (A') (A') (A") (A") (A') (A") (A') (A')
                 (A') (A') (A") (A') (A") (A") (A') (A') (A') (A')
                 (A') (A') (A') (A')
 Harris functional with IExCor= 1009 diagonalized for initial guess.
 ExpMin= 8.45D-02 ExpMax= 5.48D+03 ExpMxC= 8.25D+02 IAcc=2 IRadAn=         0 AccDes= 0.00D+00
 HarFok:  IExCor= 1009 AccDes= 0.00D+00 IRadAn=         0 IDoV= 1
 ScaDFX=  1.000000  1.000000  1.000000  1.000000
 FoFCou: FMM=F IPFlag=           0 FMFlag=      100000 FMFlg1=           0
         NFxFlg=           0 DoJE=T BraDBF=F KetDBF=T FulRan=T
         Omega=  0.000000  0.000000  1.000000  0.000000  0.000000 ICntrl=     500 IOpCl=  0
         NMat0=    1 NMatS0=    1 NMatT0=    0 NMatD0=    1 NMtDS0=    0 NMtDT0=    0
         I1Cent=           4 NGrid=           0.
 Petite list used in FoFCou.
 Requested convergence on RMS density matrix=1.00D-08 within 128 cycles.
 Requested convergence on MAX density matrix=1.00D-06.
 Requested convergence on             energy=1.00D-06.
 No special actions if energy rises.
 Keep R1 ints in memory in canonical form, NReq=3550947.
 Integral accuracy reduced to 1.0D-05 until final iterations.
 Initial convergence to 1.0D-05 achieved.  Increase integral accuracy.
 SCF Done:  E(RM062X) =  -226.581068608     A.U. after   19 cycles
             Convg  =    0.5146D-08             -V/T =  2.0075
 Calling FoFJK, ICntrl=      2127 FMM=F ISym2X=1 I1Cent= 0 IOpClX= 0 NMat=1 NMatS=1 NMatT=0.
 ***** Axes restored to original set *****
 -------------------------------------------------------------------
 Center     Atomic                   Forces (Hartrees/Bohr)
 Number     Number              X              Y              Z
 -------------------------------------------------------------------
      1        8           0.006504126   -0.002267142    0.000000000
      2        8          -0.041637033   -0.026252448    0.000000000
      3        1           0.033172787    0.019818963    0.000000000
      4        8          -0.006907759    0.000861303    0.000000000
      5        1           0.008867878    0.007839324    0.000000000
 -------------------------------------------------------------------
 Cartesian Forces:  Max     0.041637033 RMS     0.016637419

 GradGradGradGradGradGradGradGradGradGradGradGradGradGradGradGradGradGrad
 Berny optimization.
 Internal  Forces:  Max     0.044666221 RMS     0.017646873
 Search for a saddle point.
 Step number   7 out of a maximum of  100
 All quantities printed in internal units (Hartrees-Bohrs-Radians)
 Swaping is turned off.
 Update second derivatives using D2CorX and points    5    6    7
 The second derivative matrix:
                          R1        R2        R3        R4        A1
           R1           0.42774
           R2           0.02582   0.26205
           R3           0.06769   0.15835   0.40988
           R4          -0.01099  -0.00712  -0.00516   0.56156
           A1           0.01995   0.08511   0.08312  -0.02727   0.20799
           A2          -0.01099  -0.02122   0.07006   0.00708   0.03005
           A3           0.08547   0.08567   0.09247  -0.01599   0.05627
           A4           0.00000   0.00000   0.00000   0.00000   0.00000
           D1           0.00000   0.00000   0.00000   0.00000   0.00000
                          A2        A3        A4        D1
           A2           0.22738
           A3           0.02287   0.07102
           A4           0.00000   0.00000  -0.02923
           D1           0.00000   0.00000  -0.02758  -0.03221
     Eigenvalues ---   -0.05835  -0.00310   0.01853   0.11304   0.18425
     Eigenvalues ---    0.25201   0.40046   0.55717   0.64217
 Eigenvectors required to have negative eigenvalues:
                          D1        A4        A3        R1        R3
   1                    0.72592   0.68778   0.00000   0.00000   0.00000
                          R2        A1        A2        R4
   1                    0.00000   0.00000   0.00000   0.00000
 RFO step:  Lambda0=3.469446952D-18 Lambda=-1.95317809D-02.
 Linear search not attempted -- option 19 set.
 Maximum step size (   0.300) exceeded in Quadratic search.
    -- Step size scaled by   0.321
 Iteration  1 RMS(Cart)=  0.06437479 RMS(Int)=  0.00494925
 Iteration  2 RMS(Cart)=  0.00523068 RMS(Int)=  0.00001312
 Iteration  3 RMS(Cart)=  0.00001244 RMS(Int)=  0.00000000
 Iteration  4 RMS(Cart)=  0.00000000 RMS(Int)=  0.00000000
 ClnCor:  largest displacement from symmetrization is 3.97D-02 for atom     3.
 Variable       Old X    -DE/DX   Delta X   Delta X   Delta X     New X
                                 (Linear)    (Quad)   (Total)
    R1        2.26433  -0.00644   0.00000   0.01880   0.01843   2.28275
    R2        2.75145   0.04467   0.00000   0.09927   0.09844   2.84989
    R3        1.86844   0.00797   0.00000  -0.01542  -0.01628   1.85216
    R4        1.82471  -0.00025   0.00000  -0.00248  -0.00251   1.82220
    A1        2.77478   0.01437   0.00000   0.01370   0.01790   2.79268
    A2        1.71716   0.02163   0.00000   0.05291   0.05319   1.77036
    A3        1.94365  -0.00532   0.00000  -0.13704  -0.13863   1.80502
    A4        3.14159   0.00000   0.00000   0.17450   0.00000   3.14159
    D1        0.00000   0.00000   0.00000  -0.16533   0.00000   0.00000
         Item               Value     Threshold  Converged?
 Maximum Force            0.044666     0.000450     NO 
 RMS     Force            0.017647     0.000300     NO 
 Maximum Displacement     0.126561     0.001800     NO 
 RMS     Displacement     0.064131     0.001200     NO 
 Predicted change in Energy=-5.596651D-03
 GradGradGradGradGradGradGradGradGradGradGradGradGradGradGradGradGradGrad

                          Input orientation:                          
 ---------------------------------------------------------------------
 Center     Atomic      Atomic             Coordinates (Angstroms)
 Number     Number       Type             X           Y           Z
 ---------------------------------------------------------------------
      1          8           0       -0.371158    0.201296    0.000000
      2          8           0        0.485180   -0.650704    0.000000
      3          1           0        1.767935    0.142323    0.000000
      4          8           0        2.375170    0.911673    0.000000
      5          1           0        1.751717    1.647278    0.000000
 ---------------------------------------------------------------------
                    Distance matrix (angstroms):
                    1          2          3          4          5
     1  O    0.000000
     2  O    1.207982   0.000000
     3  H    2.139906   1.508095   0.000000
     4  O    2.836715   2.452159   0.980119   0.000000
     5  H    2.568553   2.623897   1.505042   0.964266   0.000000
 Stoichiometry    H2O3
 Framework group  CS[SG(H2O3)]
 Deg. of freedom     7
 Full point group                 CS      NOp   2
 Largest Abelian subgroup         CS      NOp   2
 Largest concise Abelian subgroup C1      NOp   1
                         Standard orientation:                         
 ---------------------------------------------------------------------
 Center     Atomic      Atomic             Coordinates (Angstroms)
 Number     Number       Type             X           Y           Z
 ---------------------------------------------------------------------
      1          8           0       -0.110353   -1.267678    0.000000
      2          8           0       -0.891973   -0.346652    0.000000
      3          1           0        0.000000    0.869381    0.000000
      4          8           0        0.814956    1.413881    0.000000
      5          1           0        1.498961    0.734214    0.000000
 ---------------------------------------------------------------------
 Rotational constants (GHZ):     44.4046453      6.7170722      5.8344912
 Standard basis: 6-31+G(d,p) (6D, 7F)
 There are    50 symmetry adapted basis functions of A'  symmetry.
 There are    17 symmetry adapted basis functions of A"  symmetry.
 Integral buffers will be    262144 words long.
 Raffenetti 2 integral format.
 Two-electron integral symmetry is turned on.
    67 basis functions,   110 primitive gaussians,    67 cartesian basis functions
    13 alpha electrons       13 beta electrons
       nuclear repulsion energy        70.8946907828 Hartrees.
 NAtoms=    5 NActive=    5 NUniq=    5 SFac= 7.50D-01 NAtFMM=   80 NAOKFM=F Big=F
 One-electron integrals computed using PRISM.
 NBasis=    67 RedAO= T  NBF=    50    17
 NBsUse=    67 1.00D-06 NBFU=    50    17
 Initial guess read from the read-write file.
 B after Tr=     0.000000    0.000000    0.000000
         Rot=    1.000000    0.000000    0.000000    0.000000 Ang=   0.00 deg.
 Initial guess orbital symmetries:
       Occupied  (A') (A') (A') (A') (A') (A') (A') (A') (A") (A')
                 (A') (A') (A")
       Virtual   (A") (A') (A') (A') (A") (A') (A') (A") (A') (A")
                 (A') (A') (A') (A') (A') (A') (A') (A') (A') (A")
                 (A') (A') (A") (A') (A") (A') (A') (A') (A') (A")
                 (A") (A') (A') (A") (A') (A") (A') (A") (A') (A')
                 (A') (A') (A") (A') (A") (A") (A') (A') (A') (A')
                 (A') (A') (A') (A')
 Harris functional with IExCor= 1009 diagonalized for initial guess.
[...]
 Step number  99 out of a maximum of  100
 All quantities printed in internal units (Hartrees-Bohrs-Radians)
 Swaping is turned off.
 Update second derivatives using D2CorX and points   90   91   92   93   94
                                                     95   96   97   98   99
 The second derivative matrix:
                          R1        R2        R3        R4        A1
           R1           0.73651
           R2           0.00497   0.01307
           R3           0.02956   0.00094   0.50726
           R4           0.00039   0.00153  -0.00444   0.56162
           A1           0.00158   0.01726   0.00138   0.00189   0.02467
           A2          -0.00607  -0.00696   0.03351   0.00964  -0.00869
           A3           0.00774   0.01538  -0.00091  -0.00019   0.02015
           A4           0.00437  -0.00016  -0.00049   0.00273  -0.00171
           D1           0.00149   0.00190  -0.00039   0.00149   0.00334
                          A2        A3        A4        D1
           A2           0.23327
           A3          -0.00439   0.02724
           A4          -0.01229  -0.00364   0.00790
           D1          -0.00795   0.00053   0.00256   0.00125
     Eigenvalues ---   -0.00052   0.00071   0.00509   0.00929   0.05761
     Eigenvalues ---    0.23049   0.50756   0.56215   0.74042
 Eigenvectors required to have negative eigenvalues:
                          D1        A1        R2        A4        A3
   1                    0.82241  -0.38009   0.30903  -0.28409   0.05370
                          A2        R1        R4        R3
   1                    0.00902  -0.00175  -0.00050   0.00042
 RFO step:  Lambda0=2.052393893D-05 Lambda=-4.67792659D-06.
 Linear search not attempted -- option 19 set.
 Iteration  1 RMS(Cart)=  0.06461577 RMS(Int)=  0.00602941
 Iteration  2 RMS(Cart)=  0.00511216 RMS(Int)=  0.00002560
 Iteration  3 RMS(Cart)=  0.00002900 RMS(Int)=  0.00000000
 Iteration  4 RMS(Cart)=  0.00000000 RMS(Int)=  0.00000000
 Variable       Old X    -DE/DX   Delta X   Delta X   Delta X     New X
                                 (Linear)    (Quad)   (Total)
    R1        2.25986   0.00004   0.00000   0.00051   0.00051   2.26037
    R2        4.40795   0.00019   0.00000  -0.04405  -0.04405   4.36390
    R3        1.81989  -0.00001   0.00000  -0.00018  -0.00018   1.81971
    R4        1.81709   0.00008   0.00000   0.00026   0.00026   1.81734
    A1        2.05696   0.00021   0.00000   0.08371   0.08371   2.14068
    A2        1.85509   0.00002   0.00000  -0.00205  -0.00205   1.85303
    A3        1.82518   0.00013   0.00000  -0.02425  -0.02425   1.80093
    A4        2.02748  -0.00013   0.00000   0.04053   0.04053   2.06801
    D1        2.10354   0.00010   0.00000  -0.16647  -0.16647   1.93707
         Item               Value     Threshold  Converged?
 Maximum Force            0.000207     0.000450     YES
 RMS     Force            0.000121     0.000300     YES
 Maximum Displacement     0.128276     0.001800     NO 
 RMS     Displacement     0.063270     0.001200     NO 
 Predicted change in Energy= 8.313934D-06
 GradGradGradGradGradGradGradGradGradGradGradGradGradGradGradGradGradGrad

                          Input orientation:                          
 ---------------------------------------------------------------------
 Center     Atomic      Atomic             Coordinates (Angstroms)
 Number     Number       Type             X           Y           Z
 ---------------------------------------------------------------------
      1          8           0       -0.626061   -0.008707   -0.012705
      2          8           0        0.124199   -0.936818   -0.093069
      3          1           0        2.027701    0.320271    0.266312
      4          8           0        2.301538    1.029115   -0.325148
      5          1           0        2.181465    1.848005    0.164609
 ---------------------------------------------------------------------
                    Distance matrix (angstroms):
                    1          2          3          4          5
     1  O    0.000000
     2  O    1.196135   0.000000
     3  H    2.688593   2.309274   0.000000
     4  O    3.121783   2.942713   0.962950   0.000000
     5  H    3.370611   3.471884   1.538817   0.961697   0.000000
 Stoichiometry    H2O3
 Framework group  C1[X(H2O3)]
 Deg. of freedom     9
 Full point group                 C1      NOp   1
 Largest Abelian subgroup         C1      NOp   1
 Largest concise Abelian subgroup C1      NOp   1
                         Standard orientation:                         
 ---------------------------------------------------------------------
 Center     Atomic      Atomic             Coordinates (Angstroms)
 Number     Number       Type             X           Y           Z
 ---------------------------------------------------------------------
      1          8           0       -1.217620    0.584786   -0.011789
      2          8           0       -1.042255   -0.598327    0.003472
      3          1           0        1.210661   -0.454654    0.489759
      4          8           0        1.842574   -0.026323   -0.097174
      5          1           0        2.127744    0.773569    0.354170
 ---------------------------------------------------------------------
 Rotational constants (GHZ):     40.4589969      4.9676086      4.4625049
 Standard basis: 6-31+G(d,p) (6D, 7F)
 There are    67 symmetry adapted basis functions of A   symmetry.
 Integral buffers will be    262144 words long.
 Raffenetti 2 integral format.
 Two-electron integral symmetry is turned on.
    67 basis functions,   110 primitive gaussians,    67 cartesian basis functions
    13 alpha electrons       13 beta electrons
       nuclear repulsion energy        65.6969172100 Hartrees.
 NAtoms=    5 NActive=    5 NUniq=    5 SFac= 7.50D-01 NAtFMM=   80 NAOKFM=F Big=F
 One-electron integrals computed using PRISM.
 NBasis=    67 RedAO= T  NBF=    67
 NBsUse=    67 1.00D-06 NBFU=    67
 Initial guess read from the read-write file.
 B after Tr=     0.000000    0.000000    0.000000
         Rot=    1.000000    0.000000    0.000000    0.000000 Ang=   0.00 deg.
 Initial guess orbital symmetries:
       Occupied  (A) (A) (A) (A) (A) (A) (A) (A) (A) (A) (A) (A)
                 (A)
       Virtual   (A) (A) (A) (A) (A) (A) (A) (A) (A) (A) (A) (A)
                 (A) (A) (A) (A) (A) (A) (A) (A) (A) (A) (A) (A)
                 (A) (A) (A) (A) (A) (A) (A) (A) (A) (A) (A) (A)
                 (A) (A) (A) (A) (A) (A) (A) (A) (A) (A) (A) (A)
                 (A) (A) (A) (A) (A) (A)
 Harris functional with IExCor= 1009 diagonalized for initial guess.
 ExpMin= 8.45D-02 ExpMax= 5.48D+03 ExpMxC= 8.25D+02 IAcc=2 IRadAn=         0 AccDes= 0.00D+00
 HarFok:  IExCor= 1009 AccDes= 0.00D+00 IRadAn=         0 IDoV= 1
 ScaDFX=  1.000000  1.000000  1.000000  1.000000
 FoFCou: FMM=F IPFlag=           0 FMFlag=      100000 FMFlg1=           0
         NFxFlg=           0 DoJE=T BraDBF=F KetDBF=T FulRan=T
         Omega=  0.000000  0.000000  1.000000  0.000000  0.000000 ICntrl=     500 IOpCl=  0
         NMat0=    1 NMatS0=    1 NMatT0=    0 NMatD0=    1 NMtDS0=    0 NMtDT0=    0
         I1Cent=           4 NGrid=           0.
 Petite list used in FoFCou.
 Requested convergence on RMS density matrix=1.00D-08 within 128 cycles.
 Requested convergence on MAX density matrix=1.00D-06.
 Requested convergence on             energy=1.00D-06.
 No special actions if energy rises.
 Keep R1 ints in memory in canonical form, NReq=3551229.
 Integral accuracy reduced to 1.0D-05 until final iterations.
 Initial convergence to 1.0D-05 achieved.  Increase integral accuracy.
 SCF Done:  E(RM062X) =  -226.602508685     A.U. after   22 cycles
             Convg  =    0.7503D-08             -V/T =  2.0081
 Calling FoFJK, ICntrl=      2127 FMM=F ISym2X=0 I1Cent= 0 IOpClX= 0 NMat=1 NMatS=1 NMatT=0.
 ***** Axes restored to original set *****
 -------------------------------------------------------------------
 Center     Atomic                   Forces (Hartrees/Bohr)
 Number     Number              X              Y              Z
 -------------------------------------------------------------------
      1        8           0.000140677   -0.000283521    0.000041306
      2        8          -0.000279398    0.000136037   -0.000039539
      3        1          -0.000015365    0.000074267    0.000001195
      4        8           0.000126163    0.000051518    0.000039918
      5        1           0.000027923    0.000021699   -0.000042880
 -------------------------------------------------------------------
 Cartesian Forces:  Max     0.000283521 RMS     0.000123564

 GradGradGradGradGradGradGradGradGradGradGradGradGradGradGradGradGradGrad
 Berny optimization.
 Internal  Forces:  Max     0.000295071 RMS     0.000164746
 Search for a saddle point.
 Step number 100 out of a maximum of  100
 All quantities printed in internal units (Hartrees-Bohrs-Radians)
 Swaping is turned off.
 Update second derivatives using D2CorX and points   91   92   93   94   95
                                                     96   97   98   99  100
 The second derivative matrix:
                          R1        R2        R3        R4        A1
           R1           0.73656
           R2           0.00277   0.01530
           R3           0.02953   0.00152   0.50728
           R4           0.00041   0.00162  -0.00445   0.56162
           A1           0.00314   0.01781   0.00095   0.00191   0.02227
           A2          -0.00603  -0.00653   0.03349   0.00966  -0.00912
           A3           0.00788   0.01582  -0.00097  -0.00012   0.01935
           A4           0.00486  -0.00085  -0.00064   0.00272  -0.00136
           D1           0.00118   0.00252  -0.00029   0.00138   0.00373
                          A2        A3        A4        D1
           A2           0.23327
           A3          -0.00449   0.02688
           A4          -0.01228  -0.00353   0.00803
           D1          -0.00765   0.00102   0.00227   0.00129
     Eigenvalues ---   -0.00038   0.00083   0.00510   0.00917   0.05711
     Eigenvalues ---    0.23049   0.50758   0.56214   0.74045
 Eigenvectors required to have negative eigenvalues:
                          D1        A1        A4        R2        A3
   1                    0.86312  -0.39792  -0.21771   0.19105   0.11270
                          A2        R4        R1        R3
   1                    0.00881  -0.00039  -0.00010   0.00003
 RFO step:  Lambda0=1.001386892D-07 Lambda=-5.08079247D-06.
 Linear search not attempted -- option 19 set.
 Iteration  1 RMS(Cart)=  0.00999939 RMS(Int)=  0.00018029
 Iteration  2 RMS(Cart)=  0.00012203 RMS(Int)=  0.00000002
 Iteration  3 RMS(Cart)=  0.00000002 RMS(Int)=  0.00000000
 Variable       Old X    -DE/DX   Delta X   Delta X   Delta X     New X
                                 (Linear)    (Quad)   (Total)
    R1        2.26037  -0.00030   0.00000  -0.00028  -0.00028   2.26009
    R2        4.36390   0.00020   0.00000  -0.00019  -0.00019   4.36371
    R3        1.81971   0.00008   0.00000   0.00009   0.00009   1.81980
    R4        1.81734  -0.00001   0.00000  -0.00002  -0.00002   1.81732
    A1        2.14068   0.00025   0.00000   0.02226   0.02226   2.16294
    A2        1.85303   0.00010   0.00000   0.00010   0.00010   1.85313
    A3        1.80093   0.00015   0.00000  -0.01128  -0.01128   1.78965
    A4        2.06801  -0.00011   0.00000  -0.01202  -0.01202   2.05599
    D1        1.93707   0.00003   0.00000  -0.00996  -0.00996   1.92711
         Item               Value     Threshold  Converged?
 Maximum Force            0.000295     0.000450     YES
 RMS     Force            0.000165     0.000300     YES
 Maximum Displacement     0.017740     0.001800     NO 
 RMS     Displacement     0.009975     0.001200     NO 
 Predicted change in Energy=-2.490312D-06
 Optimization stopped.
    -- Number of steps exceeded,  NStep= 100
    -- Flag reset to prevent archiving.
                           ----------------------------
                           ! Non-Optimized Parameters !
                           ! (Angstroms and Degrees)  !
 --------------------------                            --------------------------
 ! Name  Definition              Value          Derivative Info.                !
 --------------------------------------------------------------------------------
 ! R1    R(1,2)                  1.196          -DE/DX =   -0.0003              !
 ! R2    R(2,3)                  2.3092         -DE/DX =    0.0002              !
 ! R3    R(3,4)                  0.963          -DE/DX =    0.0001              !
 ! R4    R(4,5)                  0.9617         -DE/DX =    0.0                 !
 ! A1    A(2,3,4)              123.927          -DE/DX =    0.0003              !
 ! A2    A(3,4,5)              106.1768         -DE/DX =    0.0001              !
 ! A3    L(1,2,3,4,-1)         102.5393         -DE/DX =    0.0002              !
 ! A4    L(1,2,3,4,-2)         117.7993         -DE/DX =   -0.0001              !
 ! D1    D(2,3,4,5)            110.4153         -DE/DX =    0.0                 !
 --------------------------------------------------------------------------------
 GradGradGradGradGradGradGradGradGradGradGradGradGradGradGradGradGradGrad

                          Input orientation:                          
 ---------------------------------------------------------------------
 Center     Atomic      Atomic             Coordinates (Angstroms)
 Number     Number       Type             X           Y           Z
 ---------------------------------------------------------------------
      1          8           0       -0.626061   -0.008707   -0.012705
      2          8           0        0.124199   -0.936818   -0.093069
      3          1           0        2.027701    0.320271    0.266312
      4          8           0        2.301538    1.029115   -0.325148
      5          1           0        2.181465    1.848005    0.164609
 ---------------------------------------------------------------------
                    Distance matrix (angstroms):
                    1          2          3          4          5
     1  O    0.000000
     2  O    1.196135   0.000000
     3  H    2.688593   2.309274   0.000000
     4  O    3.121783   2.942713   0.962950   0.000000
     5  H    3.370611   3.471884   1.538817   0.961697   0.000000
 Stoichiometry    H2O3
 Framework group  C1[X(H2O3)]
 Deg. of freedom     9
 Full point group                 C1      NOp   1
 Largest Abelian subgroup         C1      NOp   1
 Largest concise Abelian subgroup C1      NOp   1
                         Standard orientation:                         
 ---------------------------------------------------------------------
 Center     Atomic      Atomic             Coordinates (Angstroms)
 Number     Number       Type             X           Y           Z
 ---------------------------------------------------------------------
      1          8           0       -1.217620    0.584786   -0.011789
      2          8           0       -1.042255   -0.598327    0.003472
      3          1           0        1.210661   -0.454654    0.489759
      4          8           0        1.842574   -0.026323   -0.097174
      5          1           0        2.127744    0.773569    0.354170
 ---------------------------------------------------------------------
 Rotational constants (GHZ):     40.4589969      4.9676086      4.4625049

 **********************************************************************

            Population analysis using the SCF density.

 **********************************************************************

 Orbital symmetries:
       Occupied  (A) (A) (A) (A) (A) (A) (A) (A) (A) (A) (A) (A)
                 (A)
       Virtual   (A) (A) (A) (A) (A) (A) (A) (A) (A) (A) (A) (A)
                 (A) (A) (A) (A) (A) (A) (A) (A) (A) (A) (A) (A)
                 (A) (A) (A) (A) (A) (A) (A) (A) (A) (A) (A) (A)
                 (A) (A) (A) (A) (A) (A) (A) (A) (A) (A) (A) (A)
                 (A) (A) (A) (A) (A) (A)
 The electronic state is 1-A.
 Alpha  occ. eigenvalues --  -19.82399 -19.82284 -19.64735  -1.44552  -1.13235
 Alpha  occ. eigenvalues --   -0.92572  -0.64046  -0.63450  -0.61453  -0.60335
 Alpha  occ. eigenvalues --   -0.46603  -0.39454  -0.35152
 Alpha virt. eigenvalues --   -0.12706   0.06629   0.09369   0.11562   0.13477
 Alpha virt. eigenvalues --    0.17235   0.18921   0.19563   0.20780   0.21276
 Alpha virt. eigenvalues --    0.24639   0.26568   0.29785   0.32099   0.34288
 Alpha virt. eigenvalues --    0.38730   0.98603   1.05244   1.08688   1.11041
 Alpha virt. eigenvalues --    1.12168   1.12691   1.16064   1.18757   1.19988
 Alpha virt. eigenvalues --    1.20515   1.22789   1.28472   1.35133   1.54730
 Alpha virt. eigenvalues --    1.56417   1.57066   1.58693   1.59907   1.63857
 Alpha virt. eigenvalues --    1.65204   1.72501   1.97706   1.99007   2.28415
 Alpha virt. eigenvalues --    2.29998   2.55639   2.58245   2.61421   2.62937
 Alpha virt. eigenvalues --    2.68254   2.71686   2.97198   3.06433   3.40951
 Alpha virt. eigenvalues --    3.56015   3.72638   3.98431   4.09951
          Condensed to atoms (all electrons):
              1          2          3          4          5
     1  O    7.654300   0.327625  -0.001703   0.017478  -0.000618
     2  O    0.327625   7.681437   0.002907  -0.010300  -0.000327
     3  H   -0.001703   0.002907   0.364180   0.282278  -0.023748
     4  O    0.017478  -0.010300   0.282278   8.174855   0.288293
     5  H   -0.000618  -0.000327  -0.023748   0.288293   0.361456
 Mulliken atomic charges:
              1
     1  O    0.002917
     2  O   -0.001343
     3  H    0.376086
     4  O   -0.752604
     5  H    0.374944
 Sum of Mulliken atomic charges =   0.00000
 Mulliken charges with hydrogens summed into heavy atoms:
              1
     1  O    0.002917
     2  O   -0.001343
     4  O   -0.001574
 Sum of Mulliken charges with hydrogens summed into heavy atoms =   0.00000
 Electronic spatial extent (au):  <R**2>=            254.8032
 Charge=              0.0000 electrons
 Dipole moment (field-independent basis, Debye):
    X=             -0.7524    Y=              0.7564    Z=              1.9073  Tot=              2.1854
 Quadrupole moment (field-independent basis, Debye-Ang):
   XX=            -19.3085   YY=            -16.0565   ZZ=            -16.4853
   XY=              2.7901   XZ=              2.2784   YZ=              0.0575
 Traceless Quadrupole moment (field-independent basis, Debye-Ang):
   XX=             -2.0251   YY=              1.2270   ZZ=              0.7981
   XY=              2.7901   XZ=              2.2784   YZ=              0.0575
 Octapole moment (field-independent basis, Debye-Ang**2):
  XXX=             -6.8439  YYY=              1.1618  ZZZ=              1.2863  XYY=              2.2886
  XXY=              7.8536  XXZ=              7.1487  XZZ=             -1.2639  YZZ=              0.1025
  YYZ=              0.9002  XYZ=              0.8453
 Hexadecapole moment (field-independent basis, Debye-Ang**3):
 XXXX=           -242.7412 YYYY=            -35.3985 ZZZZ=            -14.7427 XXXY=             20.4922
 XXXZ=              6.4690 YYYX=              2.9903 YYYZ=              0.0728 ZZZX=              1.6463
 ZZZY=             -0.0094 XXYY=            -40.0271 XXZZ=            -40.2693 YYZZ=             -8.3473
 XXYZ=              1.9470 YYXZ=              0.9861 ZZXY=              0.7008
 N-N= 6.569691720999D+01 E-N=-6.659198915071D+02  KE= 2.247816971060D+02


 IT IS DOUBTED WHETHER A MAN EVER BRINGS HIS FACULTIES TO BEAR WITH THEIR FULL FORCE
 ON A SUBJECT UNTIL HE WRITES UPON IT.

                          -- CICERO
 Error termination request processed by link 9999.
 Error termination via Lnk1e in C:\G09W\l9999.exe at Mon Feb 08 23:39:00 2021.
 Job cpu time:  0 days  0 hours  6 minutes 13.0 seconds.
 File lengths (MBytes):  RWF=      6 Int=      0 D2E=      0 Chk=      1 Scr=      1
