 Entering Link 1 = C:\G09W\l1.exe PID=      9996.
  
 Copyright (c) 1988,1990,1992,1993,1995,1998,2003,2009, Gaussian, Inc.
                  All Rights Reserved.
  
 This is part of the Gaussian(R) 09 program.  It is based on
 the Gaussian(R) 03 system (copyright 2003, Gaussian, Inc.),
 the Gaussian(R) 98 system (copyright 1998, Gaussian, Inc.),
 the Gaussian(R) 94 system (copyright 1995, Gaussian, Inc.),
 the Gaussian 92(TM) system (copyright 1992, Gaussian, Inc.),
 the Gaussian 90(TM) system (copyright 1990, Gaussian, Inc.),
 the Gaussian 88(TM) system (copyright 1988, Gaussian, Inc.),
 the Gaussian 86(TM) system (copyright 1986, Carnegie Mellon
 University), and the Gaussian 82(TM) system (copyright 1983,
 Carnegie Mellon University). Gaussian is a federally registered
 trademark of Gaussian, Inc.
  
 This software contains proprietary and confidential information,
 including trade secrets, belonging to Gaussian, Inc.
  
 This software is provided under written license and may be
 used, copied, transmitted, or stored only in accord with that
 written license.
  
 The following legend is applicable only to US Government
 contracts under FAR:
  
                    RESTRICTED RIGHTS LEGEND
  
 Use, reproduction and disclosure by the US Government is
 subject to restrictions as set forth in subparagraphs (a)
 and (c) of the Commercial Computer Software - Restricted
 Rights clause in FAR 52.227-19.
  
 Gaussian, Inc.
 340 Quinnipiac St., Bldg. 40, Wallingford CT 06492
  
  
 ---------------------------------------------------------------
 Warning -- This program may not be used in any manner that
 competes with the business of Gaussian, Inc. or will provide
 assistance to any competitor of Gaussian, Inc.  The licensee
 of this program is prohibited from giving any competitor of
 Gaussian, Inc. access to this program.  By using this program,
 the user acknowledges that Gaussian, Inc. is engaged in the
 business of creating and licensing software in the field of
 computational chemistry and represents and warrants to the
 licensee that it is not a competitor of Gaussian, Inc. and that
 it will not use this program in any manner prohibited above.
 ---------------------------------------------------------------
  

 Cite this work as:
 Gaussian 09, Revision A.02,
 M. J. Frisch, G. W. Trucks, H. B. Schlegel, G. E. Scuseria, 
 M. A. Robb, J. R. Cheeseman, G. Scalmani, V. Barone, B. Mennucci, 
 G. A. Petersson, H. Nakatsuji, M. Caricato, X. Li, H. P. Hratchian, 
 A. F. Izmaylov, J. Bloino, G. Zheng, J. L. Sonnenberg, M. Hada, 
 M. Ehara, K. Toyota, R. Fukuda, J. Hasegawa, M. Ishida, T. Nakajima, 
 Y. Honda, O. Kitao, H. Nakai, T. Vreven, J. A. Montgomery, Jr., 
 J. E. Peralta, F. Ogliaro, M. Bearpark, J. J. Heyd, E. Brothers, 
 K. N. Kudin, V. N. Staroverov, R. Kobayashi, J. Normand, 
 K. Raghavachari, A. Rendell, J. C. Burant, S. S. Iyengar, J. Tomasi, 
 M. Cossi, N. Rega, J. M. Millam, M. Klene, J. E. Knox, J. B. Cross, 
 V. Bakken, C. Adamo, J. Jaramillo, R. Gomperts, R. E. Stratmann, 
 O. Yazyev, A. J. Austin, R. Cammi, C. Pomelli, J. W. Ochterski, 
 R. L. Martin, K. Morokuma, V. G. Zakrzewski, G. A. Voth, 
 P. Salvador, J. J. Dannenberg, S. Dapprich, A. D. Daniels, 
 O. Farkas, J. B. Foresman, J. V. Ortiz, J. Cioslowski, 
 and D. J. Fox, Gaussian, Inc., Wallingford CT, 2009.
 
 ******************************************
 Gaussian 09:  IA32W-G09RevA.02 11-Jun-2009
                08-Feb-2021 
 ******************************************
 %chk=D:\Documents\rayGit\FQ\quimicaComputacional\proyecto\decompositionHydrogenP
 eroxide\descompositionByRadicals\gasPhase\step4\ts\Q2ST\ts\ts.chk
 %mem=1500MB
 %nprocshared=4
 Will use up to    4 processors via shared memory.
 ----------------------------------------------------------------------
 # opt=(readfc,ts,noeigen,maxcycle=100) geom=check guess=check freq=nor
 aman 6-31+g(d,p) m062x
 ----------------------------------------------------------------------
 1/5=1,6=100,10=3,11=1,14=-1,18=20,26=3,29=2,38=1/1,3;
 2/9=110,12=2,40=1/2;
 3/5=1,6=6,7=111,11=2,14=-4,16=1,25=1,30=1,71=1,74=-55,116=-2/1,2,3;
 4/5=1/1;
 5/5=2,38=6/2;
 6/7=2,8=2,9=2,10=2,28=1/1;
 7//1,2,3,16;
 1/5=1,6=100,11=1,14=-1,18=20/3(2);
 2/9=110/2;
 99//99;
 2/9=110/2;
 3/5=1,6=6,7=111,11=2,14=-2,16=1,25=1,30=1,71=1,74=-55/1,2,3;
 4/5=5,16=3/1;
 5/5=2,38=5/2;
 7//1,2,3,16;
 1/5=1,6=100,11=1,14=-1,18=20/3(-5);
 2/9=110/2;
 6/7=2,8=2,9=2,10=2,19=2,28=1/1;
 99/9=1/99;
 ---
 ts2
 ---
 Redundant internal coordinates taken from checkpoint file:
 D:\Documents\rayGit\FQ\quimicaComputacional\proyecto\decompositionHydrogenPeroxide\descompositionByRadicals\gasPhase\step4\ts\Q2ST\ts\ts.chk
 Charge =  0 Multiplicity = 1
 O,0,-0.6260611217,-0.0087069985,-0.0127047714
 O,0,0.1241993935,-0.9368184474,-0.0930687567
 H,0,2.0277013008,0.3202707791,0.2663124896
 O,0,2.3015380136,1.0291146578,-0.3251483965
 H,0,2.1814649038,1.8480045089,0.164609435
 Recover connectivity data from disk.

 GradGradGradGradGradGradGradGradGradGradGradGradGradGradGradGradGradGrad
 Berny optimization.
 Initialization pass.
 Force constant matrix read from checkpoint file:
 D:\Documents\rayGit\FQ\quimicaComputacional\proyecto\decompositionHydrogenPeroxi
 de\descompositionByRadicals\gasPhase\step4\ts\Q2ST\ts\ts.chk
                           ----------------------------
                           !    Initial Parameters    !
                           ! (Angstroms and Degrees)  !
 --------------------------                            --------------------------
 ! Name  Definition              Value          Derivative Info.                !
 --------------------------------------------------------------------------------
 ! R1    R(1,2)                  1.1961         D2E/DX2 =    0.7366             !
 ! R2    R(2,3)                  2.3093         D2E/DX2 =    0.0153             !
 ! R3    R(3,4)                  0.9629         D2E/DX2 =    0.5073             !
 ! R4    R(4,5)                  0.9617         D2E/DX2 =    0.5616             !
 ! A1    A(2,3,4)              122.6519         D2E/DX2 =    0.0223             !
 ! A2    A(3,4,5)              106.1709         D2E/DX2 =    0.2333             !
 ! A3    L(1,2,3,4,-1)         103.1857         D2E/DX2 =    0.0269             !
 ! A4    L(1,2,3,4,-2)         118.4883         D2E/DX2 =    0.008              !
 ! D1    D(2,3,4,5)            110.9857         D2E/DX2 =    0.0013             !
 --------------------------------------------------------------------------------
 Trust Radius=3.00D-01 FncErr=1.00D-07 GrdErr=1.00D-06
 Number of steps in this run= 100 maximum allowed number of steps= 100.
 Search for a saddle point of order  1.
 GradGradGradGradGradGradGradGradGradGradGradGradGradGradGradGradGradGrad

                          Input orientation:                          
 ---------------------------------------------------------------------
 Center     Atomic      Atomic             Coordinates (Angstroms)
 Number     Number       Type             X           Y           Z
 ---------------------------------------------------------------------
      1          8           0       -0.626061   -0.008707   -0.012705
      2          8           0        0.124199   -0.936818   -0.093069
      3          1           0        2.027701    0.320271    0.266312
      4          8           0        2.301538    1.029115   -0.325148
      5          1           0        2.181465    1.848005    0.164609
 ---------------------------------------------------------------------
                    Distance matrix (angstroms):
                    1          2          3          4          5
     1  O    0.000000
     2  O    1.196135   0.000000
     3  H    2.688593   2.309274   0.000000
     4  O    3.121783   2.942713   0.962950   0.000000
     5  H    3.370611   3.471884   1.538817   0.961697   0.000000
 Stoichiometry    H2O3
 Framework group  C1[X(H2O3)]
 Deg. of freedom     9
 Full point group                 C1      NOp   1
 Largest Abelian subgroup         C1      NOp   1
 Largest concise Abelian subgroup C1      NOp   1
                         Standard orientation:                         
 ---------------------------------------------------------------------
 Center     Atomic      Atomic             Coordinates (Angstroms)
 Number     Number       Type             X           Y           Z
 ---------------------------------------------------------------------
      1          8           0       -1.217620    0.584786   -0.011789
      2          8           0       -1.042255   -0.598327    0.003472
      3          1           0        1.210661   -0.454654    0.489759
      4          8           0        1.842574   -0.026323   -0.097174
      5          1           0        2.127744    0.773569    0.354170
 ---------------------------------------------------------------------
 Rotational constants (GHZ):     40.4589969      4.9676086      4.4625049
 Standard basis: 6-31+G(d,p) (6D, 7F)
 There are    67 symmetry adapted basis functions of A   symmetry.
 Integral buffers will be    262144 words long.
 Raffenetti 2 integral format.
 Two-electron integral symmetry is turned on.
    67 basis functions,   110 primitive gaussians,    67 cartesian basis functions
    13 alpha electrons       13 beta electrons
       nuclear repulsion energy        65.6969172100 Hartrees.
 NAtoms=    5 NActive=    5 NUniq=    5 SFac= 7.50D-01 NAtFMM=   80 NAOKFM=F Big=F
 One-electron integrals computed using PRISM.
 NBasis=    67 RedAO= T  NBF=    67
 NBsUse=    67 1.00D-06 NBFU=    67
 Initial guess read from the checkpoint file:  D:\Documents\rayGit\FQ\quimicaComp
 utacional\proyecto\decompositionHydrogenPeroxide\descompositionByRadicals\gasPha
 se\step4\ts\Q2ST\ts\ts.chk
 B after Tr=     0.000000    0.000000    0.000000
         Rot=    1.000000    0.000000    0.000000    0.000000 Ang=   0.00 deg.
 Initial guess orbital symmetries:
       Occupied  (A) (A) (A) (A) (A) (A) (A) (A) (A) (A) (A) (A)
                 (A)
       Virtual   (A) (A) (A) (A) (A) (A) (A) (A) (A) (A) (A) (A)
                 (A) (A) (A) (A) (A) (A) (A) (A) (A) (A) (A) (A)
                 (A) (A) (A) (A) (A) (A) (A) (A) (A) (A) (A) (A)
                 (A) (A) (A) (A) (A) (A) (A) (A) (A) (A) (A) (A)
                 (A) (A) (A) (A) (A) (A)
 Requested convergence on RMS density matrix=1.00D-08 within 128 cycles.
 Requested convergence on MAX density matrix=1.00D-06.
 Requested convergence on             energy=1.00D-06.
 No special actions if energy rises.
 Keep R1 ints in memory in canonical form, NReq=3551229.
 SCF Done:  E(RM062X) =  -226.602508685     A.U. after    1 cycles
             Convg  =    0.1687D-09             -V/T =  2.0081

 **********************************************************************

            Population analysis using the SCF density.

 **********************************************************************

 Orbital symmetries:
       Occupied  (A) (A) (A) (A) (A) (A) (A) (A) (A) (A) (A) (A)
                 (A)
       Virtual   (A) (A) (A) (A) (A) (A) (A) (A) (A) (A) (A) (A)
                 (A) (A) (A) (A) (A) (A) (A) (A) (A) (A) (A) (A)
                 (A) (A) (A) (A) (A) (A) (A) (A) (A) (A) (A) (A)
                 (A) (A) (A) (A) (A) (A) (A) (A) (A) (A) (A) (A)
                 (A) (A) (A) (A) (A) (A)
 The electronic state is 1-A.
 Alpha  occ. eigenvalues --  -19.82399 -19.82284 -19.64735  -1.44552  -1.13235
 Alpha  occ. eigenvalues --   -0.92572  -0.64046  -0.63450  -0.61453  -0.60335
 Alpha  occ. eigenvalues --   -0.46603  -0.39454  -0.35152
 Alpha virt. eigenvalues --   -0.12706   0.06629   0.09369   0.11562   0.13477
 Alpha virt. eigenvalues --    0.17235   0.18921   0.19563   0.20780   0.21276
 Alpha virt. eigenvalues --    0.24639   0.26568   0.29785   0.32099   0.34288
 Alpha virt. eigenvalues --    0.38730   0.98603   1.05244   1.08688   1.11041
 Alpha virt. eigenvalues --    1.12168   1.12691   1.16064   1.18757   1.19988
 Alpha virt. eigenvalues --    1.20515   1.22789   1.28472   1.35133   1.54730
 Alpha virt. eigenvalues --    1.56417   1.57066   1.58693   1.59907   1.63857
 Alpha virt. eigenvalues --    1.65204   1.72501   1.97706   1.99007   2.28415
 Alpha virt. eigenvalues --    2.29998   2.55639   2.58245   2.61421   2.62937
 Alpha virt. eigenvalues --    2.68254   2.71686   2.97198   3.06433   3.40951
 Alpha virt. eigenvalues --    3.56015   3.72638   3.98431   4.09951
          Condensed to atoms (all electrons):
              1          2          3          4          5
     1  O    7.654300   0.327625  -0.001703   0.017478  -0.000618
     2  O    0.327625   7.681437   0.002907  -0.010300  -0.000327
     3  H   -0.001703   0.002907   0.364180   0.282278  -0.023748
     4  O    0.017478  -0.010300   0.282278   8.174855   0.288293
     5  H   -0.000618  -0.000327  -0.023748   0.288293   0.361456
 Mulliken atomic charges:
              1
     1  O    0.002917
     2  O   -0.001343
     3  H    0.376086
     4  O   -0.752604
     5  H    0.374944
 Sum of Mulliken atomic charges =   0.00000
 Mulliken charges with hydrogens summed into heavy atoms:
              1
     1  O    0.002917
     2  O   -0.001343
     4  O   -0.001574
 Sum of Mulliken charges with hydrogens summed into heavy atoms =   0.00000
 Electronic spatial extent (au):  <R**2>=            254.8032
 Charge=              0.0000 electrons
 Dipole moment (field-independent basis, Debye):
    X=             -0.7524    Y=              0.7564    Z=              1.9073  Tot=              2.1854
 Quadrupole moment (field-independent basis, Debye-Ang):
   XX=            -19.3085   YY=            -16.0565   ZZ=            -16.4853
   XY=              2.7901   XZ=              2.2784   YZ=              0.0575
 Traceless Quadrupole moment (field-independent basis, Debye-Ang):
   XX=             -2.0251   YY=              1.2270   ZZ=              0.7981
   XY=              2.7901   XZ=              2.2784   YZ=              0.0575
 Octapole moment (field-independent basis, Debye-Ang**2):
  XXX=             -6.8439  YYY=              1.1618  ZZZ=              1.2863  XYY=              2.2886
  XXY=              7.8536  XXZ=              7.1487  XZZ=             -1.2639  YZZ=              0.1025
  YYZ=              0.9002  XYZ=              0.8453
 Hexadecapole moment (field-independent basis, Debye-Ang**3):
 XXXX=           -242.7412 YYYY=            -35.3985 ZZZZ=            -14.7427 XXXY=             20.4922
 XXXZ=              6.4690 YYYX=              2.9903 YYYZ=              0.0728 ZZZX=              1.6463
 ZZZY=             -0.0094 XXYY=            -40.0271 XXZZ=            -40.2693 YYZZ=             -8.3473
 XXYZ=              1.9470 YYXZ=              0.9861 ZZXY=              0.7008
 N-N= 6.569691720999D+01 E-N=-6.659198916146D+02  KE= 2.247816971579D+02
 Calling FoFJK, ICntrl=      2127 FMM=F ISym2X=0 I1Cent= 0 IOpClX= 0 NMat=1 NMatS=1 NMatT=0.
 ***** Axes restored to original set *****
 -------------------------------------------------------------------
 Center     Atomic                   Forces (Hartrees/Bohr)
 Number     Number              X              Y              Z
 -------------------------------------------------------------------
      1        8           0.000140682   -0.000283527    0.000041305
      2        8          -0.000279404    0.000136043   -0.000039538
      3        1          -0.000015365    0.000074267    0.000001195
      4        8           0.000126163    0.000051518    0.000039919
      5        1           0.000027923    0.000021699   -0.000042880
 -------------------------------------------------------------------
 Cartesian Forces:  Max     0.000283527 RMS     0.000123566

 GradGradGradGradGradGradGradGradGradGradGradGradGradGradGradGradGradGrad
 Berny optimization.
 Internal  Forces:  Max     0.000295079 RMS     0.000164747
 Search for a saddle point.
 Step number   1 out of a maximum of  100
 All quantities printed in internal units (Hartrees-Bohrs-Radians)
 Swaping is turned off.
 Second derivative matrix not updated -- first step.
 The second derivative matrix:
                          R1        R2        R3        R4        A1
           R1           0.73656
           R2           0.00277   0.01530
           R3           0.02953   0.00152   0.50728
           R4           0.00041   0.00162  -0.00445   0.56162
           A1           0.00314   0.01781   0.00095   0.00191   0.02227
           A2          -0.00603  -0.00653   0.03349   0.00966  -0.00912
           A3           0.00788   0.01582  -0.00097  -0.00012   0.01935
           A4           0.00486  -0.00085  -0.00064   0.00272  -0.00136
           D1           0.00118   0.00252  -0.00029   0.00138   0.00373
                          A2        A3        A4        D1
           A2           0.23327
           A3          -0.00449   0.02688
           A4          -0.01228  -0.00353   0.00803
           D1          -0.00765   0.00102   0.00227   0.00129
     Eigenvalues ---   -0.00038   0.00083   0.00510   0.00917   0.05711
     Eigenvalues ---    0.23049   0.50758   0.56214   0.74045
 Eigenvectors required to have negative eigenvalues:
                          D1        A1        A4        R2        A3
   1                    0.86312  -0.39792  -0.21771   0.19105   0.11270
                          A2        R4        R1        R3
   1                    0.00881  -0.00039  -0.00010   0.00003
 RFO step:  Lambda0=1.001411532D-07 Lambda=-5.08079628D-06.
 Linear search not attempted -- option 19 set.
 Iteration  1 RMS(Cart)=  0.00999940 RMS(Int)=  0.00018029
 Iteration  2 RMS(Cart)=  0.00012203 RMS(Int)=  0.00000002
 Iteration  3 RMS(Cart)=  0.00000002 RMS(Int)=  0.00000000
 Variable       Old X    -DE/DX   Delta X   Delta X   Delta X     New X
                                 (Linear)    (Quad)   (Total)
    R1        2.26037  -0.00030   0.00000  -0.00028  -0.00028   2.26009
    R2        4.36390   0.00020   0.00000  -0.00019  -0.00019   4.36371
    R3        1.81971   0.00008   0.00000   0.00009   0.00009   1.81980
    R4        1.81734  -0.00001   0.00000  -0.00002  -0.00002   1.81732
    A1        2.14068   0.00025   0.00000   0.02226   0.02226   2.16294
    A2        1.85303   0.00010   0.00000   0.00010   0.00010   1.85313
    A3        1.80093   0.00015   0.00000  -0.01128  -0.01128   1.78965
    A4        2.06801  -0.00011   0.00000  -0.01202  -0.01202   2.05599
    D1        1.93707   0.00003   0.00000  -0.00996  -0.00996   1.92711
         Item               Value     Threshold  Converged?
 Maximum Force            0.000295     0.000450     YES
 RMS     Force            0.000165     0.000300     YES
 Maximum Displacement     0.017740     0.001800     NO 
 RMS     Displacement     0.009975     0.001200     NO 
 Predicted change in Energy=-2.490312D-06
 GradGradGradGradGradGradGradGradGradGradGradGradGradGradGradGradGradGrad

                          Input orientation:                          
 ---------------------------------------------------------------------
 Center     Atomic      Atomic             Coordinates (Angstroms)
 Number     Number       Type             X           Y           Z
 ---------------------------------------------------------------------
      1          8           0       -0.623021   -0.008670   -0.010366
      2          8           0        0.120201   -0.942006   -0.093360
      3          1           0        2.019470    0.322461    0.261873
      4          8           0        2.310926    1.030363   -0.322328
      5          1           0        2.181268    1.849716    0.164181
 ---------------------------------------------------------------------
                    Distance matrix (angstroms):
                    1          2          3          4          5
     1  O    0.000000
     2  O    1.195987   0.000000
     3  H    2.677036   2.309175   0.000000
     4  O    3.128091   2.956678   0.962997   0.000000
     5  H    3.368694   3.479661   1.538906   0.961687   0.000000
 Stoichiometry    H2O3
 Framework group  C1[X(H2O3)]
 Deg. of freedom     9
 Full point group                 C1      NOp   1
 Largest Abelian subgroup         C1      NOp   1
 Largest concise Abelian subgroup C1      NOp   1
                         Standard orientation:                         
 ---------------------------------------------------------------------
 Center     Atomic      Atomic             Coordinates (Angstroms)
 Number     Number       Type             X           Y           Z
 ---------------------------------------------------------------------
      1          8           0       -1.216044    0.586244   -0.012511
      2          8           0       -1.050080   -0.598058    0.003916
      3          1           0        1.203460   -0.446090    0.484285
      4          8           0        1.849717   -0.029524   -0.095531
      5          1           0        2.127801    0.776794    0.348723
 ---------------------------------------------------------------------
 Rotational constants (GHZ):     40.4304179      4.9388291      4.4379150
 Standard basis: 6-31+G(d,p) (6D, 7F)
 There are    67 symmetry adapted basis functions of A   symmetry.
 Integral buffers will be    262144 words long.
 Raffenetti 2 integral format.
 Two-electron integral symmetry is turned on.
    67 basis functions,   110 primitive gaussians,    67 cartesian basis functions
    13 alpha electrons       13 beta electrons
       nuclear repulsion energy        65.6288858076 Hartrees.
 NAtoms=    5 NActive=    5 NUniq=    5 SFac= 7.50D-01 NAtFMM=   80 NAOKFM=F Big=F
 One-electron integrals computed using PRISM.
 NBasis=    67 RedAO= T  NBF=    67
 NBsUse=    67 1.00D-06 NBFU=    67
 Initial guess read from the read-write file.
 B after Tr=     0.000000    0.000000    0.000000
         Rot=    1.000000    0.000000    0.000000    0.000000 Ang=   0.00 deg.
 Initial guess orbital symmetries:
       Occupied  (A) (A) (A) (A) (A) (A) (A) (A) (A) (A) (A) (A)
                 (A)
       Virtual   (A) (A) (A) (A) (A) (A) (A) (A) (A) (A) (A) (A)
                 (A) (A) (A) (A) (A) (A) (A) (A) (A) (A) (A) (A)
                 (A) (A) (A) (A) (A) (A) (A) (A) (A) (A) (A) (A)
                 (A) (A) (A) (A) (A) (A) (A) (A) (A) (A) (A) (A)
                 (A) (A) (A) (A) (A) (A)
 Requested convergence on RMS density matrix=1.00D-08 within 128 cycles.
 Requested convergence on MAX density matrix=1.00D-06.
 Requested convergence on             energy=1.00D-06.
 No special actions if energy rises.
 Keep R1 ints in memory in canonical form, NReq=3551229.
 SCF Done:  E(RM062X) =  -226.602512152     A.U. after   15 cycles
             Convg  =    0.9701D-08             -V/T =  2.0081
 Calling FoFJK, ICntrl=      2127 FMM=F ISym2X=0 I1Cent= 0 IOpClX= 0 NMat=1 NMatS=1 NMatT=0.
 ***** Axes restored to original set *****
 -------------------------------------------------------------------
 Center     Atomic                   Forces (Hartrees/Bohr)
 Number     Number              X              Y              Z
 -------------------------------------------------------------------
      1        8          -0.000136766   -0.000011023    0.000052544
      2        8           0.000041101   -0.000059335   -0.000049408
      3        1           0.000000687    0.000088424   -0.000032822
      4        8           0.000095470   -0.000012424    0.000050755
      5        1          -0.000000492   -0.000005642   -0.000021069
 -------------------------------------------------------------------
 Cartesian Forces:  Max     0.000136766 RMS     0.000057998

 GradGradGradGradGradGradGradGradGradGradGradGradGradGradGradGradGradGrad
 Berny optimization.
 Internal  Forces:  Max     0.000252411 RMS     0.000121037
 Search for a saddle point.
 Step number   2 out of a maximum of  100
 All quantities printed in internal units (Hartrees-Bohrs-Radians)
 Swaping is turned off.
 Update second derivatives using D2CorX and points    1    2
 The second derivative matrix:
                          R1        R2        R3        R4        A1
           R1           0.73645
           R2           0.00260   0.01504
           R3           0.02956   0.00156   0.50728
           R4           0.00045   0.00168  -0.00446   0.56160
           A1           0.00059   0.01435   0.00155   0.00260   0.01353
           A2          -0.00609  -0.00663   0.03350   0.00968  -0.01011
           A3           0.00863   0.01677  -0.00116  -0.00029   0.01384
           A4           0.00619   0.00094  -0.00096   0.00237   0.00248
           D1           0.00219   0.00388  -0.00054   0.00111   0.00529
                          A2        A3        A4        D1
           A2           0.23324
           A3          -0.00428   0.03223
           A4          -0.01177  -0.00032   0.00641
           D1          -0.00727   0.00408   0.00177   0.00150
     Eigenvalues ---   -0.00120   0.00054   0.00500   0.01000   0.05238
     Eigenvalues ---    0.23047   0.50758   0.56213   0.74037
 Eigenvectors required to have negative eigenvalues:
                          D1        A1        R2        A3        A2
   1                    0.66371  -0.61316   0.42649  -0.03986   0.00531
                          R1        R3        A4        R4
   1                   -0.00252   0.00097   0.00077   0.00015
 RFO step:  Lambda0=5.110268904D-06 Lambda=-4.33680537D-06.
 Linear search not attempted -- option 19 set.
 Iteration  1 RMS(Cart)=  0.02747482 RMS(Int)=  0.00099280
 Iteration  2 RMS(Cart)=  0.00082588 RMS(Int)=  0.00000051
 Iteration  3 RMS(Cart)=  0.00000067 RMS(Int)=  0.00000000
 Variable       Old X    -DE/DX   Delta X   Delta X   Delta X     New X
                                 (Linear)    (Quad)   (Total)
    R1        2.26009   0.00009   0.00000   0.00005   0.00005   2.26014
    R2        4.36371   0.00012   0.00000   0.00524   0.00524   4.36895
    R3        1.81980  -0.00002   0.00000   0.00000   0.00000   1.81980
    R4        1.81732  -0.00002   0.00000  -0.00002  -0.00002   1.81730
    A1        2.16294   0.00019   0.00000  -0.02039  -0.02039   2.14254
    A2        1.85313   0.00003   0.00000   0.00066   0.00066   1.85379
    A3        1.78965   0.00025   0.00000   0.00404   0.00404   1.79369
    A4        2.05599  -0.00007   0.00000  -0.02393  -0.02393   2.03206
    D1        1.92711   0.00000   0.00000   0.07620   0.07620   2.00331
         Item               Value     Threshold  Converged?
 Maximum Force            0.000252     0.000450     YES
 RMS     Force            0.000121     0.000300     YES
 Maximum Displacement     0.061486     0.001800     NO 
 RMS     Displacement     0.027745     0.001200     NO 
 Predicted change in Energy= 3.919294D-07
 GradGradGradGradGradGradGradGradGradGradGradGradGradGradGradGradGradGrad

                          Input orientation:                          
 ---------------------------------------------------------------------
 Center     Atomic      Atomic             Coordinates (Angstroms)
 Number     Number       Type             X           Y           Z
 ---------------------------------------------------------------------
      1          8           0       -0.627054   -0.018265   -0.010358
      2          8           0        0.120572   -0.947604   -0.098883
      3          1           0        2.009819    0.332294    0.272212
      4          8           0        2.291701    1.031268   -0.327240
      5          1           0        2.213805    1.854171    0.164269
 ---------------------------------------------------------------------
                    Distance matrix (angstroms):
                    1          2          3          4          5
     1  O    0.000000
     2  O    1.196015   0.000000
     3  H    2.675040   2.311949   0.000000
     4  O    3.117862   2.946503   0.962997   0.000000
     5  H    3.406903   3.507252   1.539276   0.961674   0.000000
 Stoichiometry    H2O3
 Framework group  C1[X(H2O3)]
 Deg. of freedom     9
 Full point group                 C1      NOp   1
 Largest Abelian subgroup         C1      NOp   1
 Largest concise Abelian subgroup C1      NOp   1
                         Standard orientation:                         
 ---------------------------------------------------------------------
 Center     Atomic      Atomic             Coordinates (Angstroms)
 Number     Number       Type             X           Y           Z
 ---------------------------------------------------------------------
      1          8           0       -1.214308    0.586676   -0.011619
      2          8           0       -1.048306   -0.597665    0.003565
      3          1           0        1.204287   -0.436134    0.498381
      4          8           0        1.840968   -0.028815   -0.098353
      5          1           0        2.168878    0.754564    0.352877
 ---------------------------------------------------------------------
 Rotational constants (GHZ):     40.4938841      4.9603759      4.4579198
 Standard basis: 6-31+G(d,p) (6D, 7F)
 There are    67 symmetry adapted basis functions of A   symmetry.
 Integral buffers will be    262144 words long.
 Raffenetti 2 integral format.
 Two-electron integral symmetry is turned on.
    67 basis functions,   110 primitive gaussians,    67 cartesian basis functions
    13 alpha electrons       13 beta electrons
       nuclear repulsion energy        65.6785707032 Hartrees.
 NAtoms=    5 NActive=    5 NUniq=    5 SFac= 7.50D-01 NAtFMM=   80 NAOKFM=F Big=F
 One-electron integrals computed using PRISM.
 NBasis=    67 RedAO= T  NBF=    67
 NBsUse=    67 1.00D-06 NBFU=    67
 Initial guess read from the read-write file.
 B after Tr=     0.000000    0.000000    0.000000
         Rot=    1.000000    0.000000    0.000000    0.000000 Ang=   0.00 deg.
 Initial guess orbital symmetries:
       Occupied  (A) (A) (A) (A) (A) (A) (A) (A) (A) (A) (A) (A)
                 (A)
       Virtual   (A) (A) (A) (A) (A) (A) (A) (A) (A) (A) (A) (A)
                 (A) (A) (A) (A) (A) (A) (A) (A) (A) (A) (A) (A)
                 (A) (A) (A) (A) (A) (A) (A) (A) (A) (A) (A) (A)
                 (A) (A) (A) (A) (A) (A) (A) (A) (A) (A) (A) (A)
                 (A) (A) (A) (A) (A) (A)
 Harris functional with IExCor= 1009 diagonalized for initial guess.
 ExpMin= 8.45D-02 ExpMax= 5.48D+03 ExpMxC= 8.25D+02 IAcc=2 IRadAn=         0 AccDes= 0.00D+00
 HarFok:  IExCor= 1009 AccDes= 0.00D+00 IRadAn=         0 IDoV= 1
 ScaDFX=  1.000000  1.000000  1.000000  1.000000
 FoFCou: FMM=F IPFlag=           0 FMFlag=      100000 FMFlg1=           0
         NFxFlg=           0 DoJE=T BraDBF=F KetDBF=T FulRan=T
         Omega=  0.000000  0.000000  1.000000  0.000000  0.000000 ICntrl=     500 IOpCl=  0
         NMat0=    1 NMatS0=    1 NMatT0=    0 NMatD0=    1 NMtDS0=    0 NMtDT0=    0
         I1Cent=           4 NGrid=           0.
 Petite list used in FoFCou.
 Requested convergence on RMS density matrix=1.00D-08 within 128 cycles.
 Requested convergence on MAX density matrix=1.00D-06.
 Requested convergence on             energy=1.00D-06.
 No special actions if energy rises.
 Keep R1 ints in memory in canonical form, NReq=3551229.
 Integral accuracy reduced to 1.0D-05 until final iterations.
 Initial convergence to 1.0D-05 achieved.  Increase integral accuracy.
 SCF Done:  E(RM062X) =  -226.602510636     A.U. after   19 cycles
             Convg  =    0.2554D-08             -V/T =  2.0081
 Calling FoFJK, ICntrl=      2127 FMM=F ISym2X=0 I1Cent= 0 IOpClX= 0 NMat=1 NMatS=1 NMatT=0.
 ***** Axes restored to original set *****
 -------------------------------------------------------------------
 Center     Atomic                   Forces (Hartrees/Bohr)
 Number     Number              X              Y              Z
 -------------------------------------------------------------------
      1        8          -0.000129043   -0.000082433    0.000046667
      2        8           0.000016282    0.000018057   -0.000056017
      3        1           0.000030697    0.000042503    0.000013793
      4        8           0.000067500    0.000121715    0.000027575
      5        1           0.000014563   -0.000099842   -0.000032018
 -------------------------------------------------------------------
 Cartesian Forces:  Max     0.000129043 RMS     0.000065131

 GradGradGradGradGradGradGradGradGradGradGradGradGradGradGradGradGradGrad
 Berny optimization.
 Internal  Forces:  Max     0.000330774 RMS     0.000138784
 Search for a saddle point.
 Step number   3 out of a maximum of  100
 All quantities printed in internal units (Hartrees-Bohrs-Radians)
 Swaping is turned off.
 Update second derivatives using D2CorX and points    1    2    3
 The second derivative matrix:
                          R1        R2        R3        R4        A1
           R1           0.73645
           R2           0.00257   0.01478
           R3           0.02956   0.00153   0.50727
           R4           0.00045   0.00180  -0.00445   0.56158
           A1           0.00058   0.01413   0.00153   0.00267   0.01337
           A2          -0.00610  -0.00665   0.03350   0.00969  -0.01013
           A3           0.00868   0.01660  -0.00115  -0.00039   0.01386
           A4           0.00640   0.00181  -0.00080   0.00161   0.00351
           D1           0.00180   0.00232  -0.00081   0.00248   0.00342
                          A2        A3        A4        D1
           A2           0.23324
           A3          -0.00431   0.03294
           A4          -0.01174   0.00170   0.00614
           D1          -0.00733   0.00036   0.00213   0.00109
     Eigenvalues ---   -0.00073  -0.00004   0.00499   0.01026   0.05184
     Eigenvalues ---    0.23047   0.50758   0.56212   0.74038
 Eigenvectors required to have negative eigenvalues:
                          A1        D1        R2        A3        A4
   1                    0.63628  -0.62458  -0.45118  -0.03343  -0.01762
                          A2        R1        R3        R4
   1                   -0.00610   0.00315  -0.00143   0.00130
 RFO step:  Lambda0=3.824985957D-07 Lambda=-7.70030870D-05.
 Linear search not attempted -- option 19 set.
 Maximum step size (   0.300) exceeded in Quadratic search.
    -- Step size scaled by   0.216
 Iteration  1 RMS(Cart)=  0.10898540 RMS(Int)=  0.00921475
 Iteration  2 RMS(Cart)=  0.01100330 RMS(Int)=  0.00008645
 Iteration  3 RMS(Cart)=  0.00008252 RMS(Int)=  0.00000000
 Iteration  4 RMS(Cart)=  0.00000001 RMS(Int)=  0.00000000
 Variable       Old X    -DE/DX   Delta X   Delta X   Delta X     New X
                                 (Linear)    (Quad)   (Total)
    R1        2.26014   0.00003   0.00000   0.00020   0.00020   2.26034
    R2        4.36895   0.00014   0.00000  -0.15822  -0.15822   4.21073
    R3        1.81980   0.00002   0.00000   0.00033   0.00033   1.82013
    R4        1.81730  -0.00012   0.00000  -0.00069  -0.00069   1.81661
    A1        2.14254   0.00017   0.00000   0.09202   0.09202   2.23456
    A2        1.85379   0.00000   0.00000   0.00267   0.00267   1.85646
    A3        1.79369   0.00033   0.00000   0.04562   0.04562   1.83930
    A4        2.03206  -0.00003   0.00000  -0.08818  -0.08818   1.94388
    D1        2.00331   0.00003   0.00000   0.21596   0.21596   2.21926
         Item               Value     Threshold  Converged?
 Maximum Force            0.000331     0.000450     YES
 RMS     Force            0.000139     0.000300     YES
 Maximum Displacement     0.229531     0.001800     NO 
 RMS     Displacement     0.114038     0.001200     NO 
 Predicted change in Energy=-1.821403D-05
 GradGradGradGradGradGradGradGradGradGradGradGradGradGradGradGradGradGrad

                          Input orientation:                          
 ---------------------------------------------------------------------
 Center     Atomic      Atomic             Coordinates (Angstroms)
 Number     Number       Type             X           Y           Z
 ---------------------------------------------------------------------
      1          8           0       -0.666278   -0.075084   -0.017184
      2          8           0        0.150914   -0.945813   -0.085987
      3          1           0        1.913249    0.374224    0.255575
      4          8           0        2.275690    1.044444   -0.333608
      5          1           0        2.335268    1.854093    0.181205
 ---------------------------------------------------------------------
                    Distance matrix (angstroms):
                    1          2          3          4          5
     1  O    0.000000
     2  O    1.196121   0.000000
     3  H    2.632534   2.228225   0.000000
     4  O    3.163644   2.921834   0.963170   0.000000
     5  H    3.573564   3.561217   1.540663   0.961309   0.000000
 Stoichiometry    H2O3
 Framework group  C1[X(H2O3)]
 Deg. of freedom     9
 Full point group                 C1      NOp   1
 Largest Abelian subgroup         C1      NOp   1
 Largest concise Abelian subgroup C1      NOp   1
                         Standard orientation:                         
 ---------------------------------------------------------------------
 Center     Atomic      Atomic             Coordinates (Angstroms)
 Number     Number       Type             X           Y           Z
 ---------------------------------------------------------------------
      1          8           0       -1.261332    0.572422   -0.014644
      2          8           0       -1.014734   -0.597758    0.009293
      3          1           0        1.152483   -0.360040    0.469347
      4          8           0        1.846124   -0.014610   -0.102698
      5          1           0        2.287051    0.679613    0.395049
 ---------------------------------------------------------------------
 Rotational constants (GHZ):     41.9204543      4.8895394      4.4182371
 Standard basis: 6-31+G(d,p) (6D, 7F)
 There are    67 symmetry adapted basis functions of A   symmetry.
 Integral buffers will be    262144 words long.
 Raffenetti 2 integral format.
 Two-electron integral symmetry is turned on.
    67 basis functions,   110 primitive gaussians,    67 cartesian basis functions
    13 alpha electrons       13 beta electrons
       nuclear repulsion energy        65.6346136967 Hartrees.
 NAtoms=    5 NActive=    5 NUniq=    5 SFac= 7.50D-01 NAtFMM=   80 NAOKFM=F Big=F
 One-electron integrals computed using PRISM.
 NBasis=    67 RedAO= T  NBF=    67
 NBsUse=    67 1.00D-06 NBFU=    67
 Initial guess read from the read-write file.
 B after Tr=     0.000000    0.000000    0.000000
         Rot=    1.000000    0.000000    0.000000    0.000000 Ang=   0.00 deg.
 Initial guess orbital symmetries:
       Occupied  (A) (A) (A) (A) (A) (A) (A) (A) (A) (A) (A) (A)
                 (A)
       Virtual   (A) (A) (A) (A) (A) (A) (A) (A) (A) (A) (A) (A)
                 (A) (A) (A) (A) (A) (A) (A) (A) (A) (A) (A) (A)
                 (A) (A) (A) (A) (A) (A) (A) (A) (A) (A) (A) (A)
                 (A) (A) (A) (A) (A) (A) (A) (A) (A) (A) (A) (A)
                 (A) (A) (A) (A) (A) (A)
 Harris functional with IExCor= 1009 diagonalized for initial guess.
 ExpMin= 8.45D-02 ExpMax= 5.48D+03 ExpMxC= 8.25D+02 IAcc=2 IRadAn=         0 AccDes= 0.00D+00
 HarFok:  IExCor= 1009 AccDes= 0.00D+00 IRadAn=         0 IDoV= 1
 ScaDFX=  1.000000  1.000000  1.000000  1.000000
 FoFCou: FMM=F IPFlag=           0 FMFlag=      100000 FMFlg1=           0
         NFxFlg=           0 DoJE=T BraDBF=F KetDBF=T FulRan=T
         Omega=  0.000000  0.000000  1.000000  0.000000  0.000000 ICntrl=     500 IOpCl=  0
         NMat0=    1 NMatS0=    1 NMatT0=    0 NMatD0=    1 NMtDS0=    0 NMtDT0=    0
         I1Cent=           4 NGrid=           0.
 Petite list used in FoFCou.
 Requested convergence on RMS density matrix=1.00D-08 within 128 cycles.
 Requested convergence on MAX density matrix=1.00D-06.
 Requested convergence on             energy=1.00D-06.
 No special actions if energy rises.
 Keep R1 ints in memory in canonical form, NReq=3551229.
 Integral accuracy reduced to 1.0D-05 until final iterations.
 Initial convergence to 1.0D-05 achieved.  Increase integral accuracy.
 SCF Done:  E(RM062X) =  -226.602498348     A.U. after   21 cycles
             Convg  =    0.7929D-08             -V/T =  2.0081
 Calling FoFJK, ICntrl=      2127 FMM=F ISym2X=0 I1Cent= 0 IOpClX= 0 NMat=1 NMatS=1 NMatT=0.
 ***** Axes restored to original set *****
 -------------------------------------------------------------------
 Center     Atomic                   Forces (Hartrees/Bohr)
 Number     Number              X              Y              Z
 -------------------------------------------------------------------
      1        8          -0.000104468   -0.000037602   -0.000026803
      2        8          -0.000315721   -0.000267524   -0.000061046
      3        1           0.000368031    0.000247328   -0.000014416
      4        8          -0.000046687   -0.000170378   -0.000065523
      5        1           0.000098846    0.000228176    0.000167788
 -------------------------------------------------------------------
 Cartesian Forces:  Max     0.000368031 RMS     0.000184452

 GradGradGradGradGradGradGradGradGradGradGradGradGradGradGradGradGradGrad
 Berny optimization.
 Internal  Forces:  Max     0.000528850 RMS     0.000228319
 Search for a saddle point.
 Step number   4 out of a maximum of  100
 All quantities printed in internal units (Hartrees-Bohrs-Radians)
 Swaping is turned off.
 Update second derivatives using D2CorX and points    1    2    3    4
 The second derivative matrix:
                          R1        R2        R3        R4        A1
           R1           0.73645
           R2           0.00261   0.01608
           R3           0.02956   0.00150   0.50727
           R4           0.00046   0.00249  -0.00446   0.56174
           A1           0.00057   0.01392   0.00155   0.00238   0.01324
           A2          -0.00610  -0.00652   0.03350   0.00971  -0.01019
           A3           0.00867   0.01640  -0.00114  -0.00054   0.01386
           A4           0.00642   0.00241  -0.00082   0.00205   0.00351
           D1           0.00176   0.00164  -0.00078   0.00162   0.00310
                          A2        A3        A4        D1
           A2           0.23324
           A3          -0.00434   0.03297
           A4          -0.01165   0.00163   0.00636
           D1          -0.00751   0.00038   0.00210   0.00029
     Eigenvalues ---   -0.00117   0.00084   0.00497   0.01038   0.05191
     Eigenvalues ---    0.23047   0.50758   0.56227   0.74038
 Eigenvectors required to have negative eigenvalues:
                          D1        A1        R2        A4        A3
   1                    0.86618  -0.42993   0.22171  -0.10636   0.06552
                          A2        R1        R4        R3
   1                    0.01096  -0.00233  -0.00138   0.00135
 RFO step:  Lambda0=1.939002757D-05 Lambda=-4.60789149D-05.
 Linear search not attempted -- option 19 set.
 Iteration  1 RMS(Cart)=  0.08506316 RMS(Int)=  0.00569207
 Iteration  2 RMS(Cart)=  0.00575473 RMS(Int)=  0.00002026
 Iteration  3 RMS(Cart)=  0.00002322 RMS(Int)=  0.00000000
 Iteration  4 RMS(Cart)=  0.00000000 RMS(Int)=  0.00000000
 Variable       Old X    -DE/DX   Delta X   Delta X   Delta X     New X
                                 (Linear)    (Quad)   (Total)
    R1        2.26034   0.00005   0.00000  -0.00004  -0.00004   2.26030
    R2        4.21073   0.00053   0.00000   0.11282   0.11282   4.32356
    R3        1.82013   0.00000   0.00000  -0.00031  -0.00031   1.81982
    R4        1.81661   0.00027   0.00000   0.00049   0.00049   1.81710
    A1        2.23456   0.00018   0.00000  -0.04534  -0.04534   2.18922
    A2        1.85646   0.00008   0.00000  -0.00195  -0.00195   1.85452
    A3        1.83930   0.00022   0.00000  -0.03166  -0.03166   1.80764
    A4        1.94388   0.00010   0.00000   0.06387   0.06387   2.00775
    D1        2.21926   0.00013   0.00000  -0.18872  -0.18872   2.03055
         Item               Value     Threshold  Converged?
 Maximum Force            0.000529     0.000450     NO 
 RMS     Force            0.000228     0.000300     YES
 Maximum Displacement     0.179809     0.001800     NO 
 RMS     Displacement     0.086419     0.001200     NO 
 Predicted change in Energy=-1.408625D-05
 GradGradGradGradGradGradGradGradGradGradGradGradGradGradGradGradGradGrad

                          Input orientation:                          
 ---------------------------------------------------------------------
 Center     Atomic      Atomic             Coordinates (Angstroms)
 Number     Number       Type             X           Y           Z
 ---------------------------------------------------------------------
      1          8           0       -0.642955   -0.035395   -0.009749
      2          8           0        0.126561   -0.947153   -0.094578
      3          1           0        1.982864    0.342054    0.261369
      4          8           0        2.302255    1.035148   -0.325990
      5          1           0        2.240117    1.857211    0.168947
 ---------------------------------------------------------------------
                    Distance matrix (angstroms):
                    1          2          3          4          5
     1  O    0.000000
     2  O    1.196100   0.000000
     3  H    2.666627   2.287928   0.000000
     4  O    3.149656   2.952408   0.963005   0.000000
     5  H    3.453403   3.521508   1.539616   0.961567   0.000000
 Stoichiometry    H2O3
 Framework group  C1[X(H2O3)]
 Deg. of freedom     9
 Full point group                 C1      NOp   1
 Largest Abelian subgroup         C1      NOp   1
 Largest concise Abelian subgroup C1      NOp   1
                         Standard orientation:                         
 ---------------------------------------------------------------------
 Center     Atomic      Atomic             Coordinates (Angstroms)
 Number     Number       Type             X           Y           Z
 ---------------------------------------------------------------------
      1          8           0       -1.235635    0.581812   -0.013505
      2          8           0       -1.040868   -0.598166    0.005821
      3          1           0        1.188924   -0.411131    0.482959
      4          8           0        1.853697   -0.025879   -0.097591
      5          1           0        2.193519    0.748999    0.359241
 ---------------------------------------------------------------------
 Rotational constants (GHZ):     40.9072291      4.8932169      4.4075539
 Standard basis: 6-31+G(d,p) (6D, 7F)
 There are    67 symmetry adapted basis functions of A   symmetry.
 Integral buffers will be    262144 words long.
 Raffenetti 2 integral format.
 Two-electron integral symmetry is turned on.
    67 basis functions,   110 primitive gaussians,    67 cartesian basis functions
    13 alpha electrons       13 beta electrons
       nuclear repulsion energy        65.5469106061 Hartrees.
 NAtoms=    5 NActive=    5 NUniq=    5 SFac= 7.50D-01 NAtFMM=   80 NAOKFM=F Big=F
 One-electron integrals computed using PRISM.
 NBasis=    67 RedAO= T  NBF=    67
 NBsUse=    67 1.00D-06 NBFU=    67
 Initial guess read from the read-write file.
 B after Tr=     0.000000    0.000000    0.000000
         Rot=    1.000000    0.000000    0.000000    0.000000 Ang=   0.00 deg.
 Initial guess orbital symmetries:
       Occupied  (A) (A) (A) (A) (A) (A) (A) (A) (A) (A) (A) (A)
                 (A)
       Virtual   (A) (A) (A) (A) (A) (A) (A) (A) (A) (A) (A) (A)
                 (A) (A) (A) (A) (A) (A) (A) (A) (A) (A) (A) (A)
                 (A) (A) (A) (A) (A) (A) (A) (A) (A) (A) (A) (A)
                 (A) (A) (A) (A) (A) (A) (A) (A) (A) (A) (A) (A)
                 (A) (A) (A) (A) (A) (A)
 Harris functional with IExCor= 1009 diagonalized for initial guess.
 ExpMin= 8.45D-02 ExpMax= 5.48D+03 ExpMxC= 8.25D+02 IAcc=2 IRadAn=         0 AccDes= 0.00D+00
 HarFok:  IExCor= 1009 AccDes= 0.00D+00 IRadAn=         0 IDoV= 1
 ScaDFX=  1.000000  1.000000  1.000000  1.000000
 FoFCou: FMM=F IPFlag=           0 FMFlag=      100000 FMFlg1=           0
         NFxFlg=           0 DoJE=T BraDBF=F KetDBF=T FulRan=T
         Omega=  0.000000  0.000000  1.000000  0.000000  0.000000 ICntrl=     500 IOpCl=  0
         NMat0=    1 NMatS0=    1 NMatT0=    0 NMatD0=    1 NMtDS0=    0 NMtDT0=    0
         I1Cent=           4 NGrid=           0.
 Petite list used in FoFCou.
 Requested convergence on RMS density matrix=1.00D-08 within 128 cycles.
 Requested convergence on MAX density matrix=1.00D-06.
 Requested convergence on             energy=1.00D-06.
 No special actions if energy rises.
 Keep R1 ints in memory in canonical form, NReq=3551229.
 Integral accuracy reduced to 1.0D-05 until final iterations.
 Initial convergence to 1.0D-05 achieved.  Increase integral accuracy.
 SCF Done:  E(RM062X) =  -226.602516395     A.U. after   19 cycles
             Convg  =    0.8437D-09             -V/T =  2.0081
 Calling FoFJK, ICntrl=      2127 FMM=F ISym2X=0 I1Cent= 0 IOpClX= 0 NMat=1 NMatS=1 NMatT=0.
 ***** Axes restored to original set *****
 -------------------------------------------------------------------
 Center     Atomic                   Forces (Hartrees/Bohr)
 Number     Number              X              Y              Z
 -------------------------------------------------------------------
      1        8          -0.000000076   -0.000117368    0.000026156
      2        8          -0.000095842    0.000049987   -0.000038243
      3        1           0.000039601    0.000041926    0.000000381
      4        8           0.000050775    0.000083135   -0.000002693
      5        1           0.000005543   -0.000057680    0.000014399
 -------------------------------------------------------------------
 Cartesian Forces:  Max     0.000117368 RMS     0.000054157

 GradGradGradGradGradGradGradGradGradGradGradGradGradGradGradGradGradGrad
 Berny optimization.
 Internal  Forces:  Max     0.000161721 RMS     0.000085274
 Search for a saddle point.
 Step number   5 out of a maximum of  100
 All quantities printed in internal units (Hartrees-Bohrs-Radians)
 Swaping is turned off.
 Update second derivatives using D2CorX and points    1    2    3    4    5
 The second derivative matrix:
                          R1        R2        R3        R4        A1
           R1           0.73640
           R2           0.00282   0.01592
           R3           0.02958   0.00142   0.50727
           R4           0.00040   0.00283  -0.00444   0.56169
           A1           0.00091   0.01316   0.00142   0.00255   0.01230
           A2          -0.00611  -0.00643   0.03350   0.00970  -0.01013
           A3           0.00870   0.01600  -0.00115  -0.00056   0.01321
           A4           0.00632   0.00254  -0.00078   0.00191   0.00360
           D1           0.00134   0.00244  -0.00062   0.00143   0.00366
                          A2        A3        A4        D1
           A2           0.23324
           A3          -0.00435   0.03301
           A4          -0.01169   0.00182   0.00634
           D1          -0.00759   0.00121   0.00208   0.00059
     Eigenvalues ---   -0.00101   0.00096   0.00489   0.01047   0.05086
     Eigenvalues ---    0.23046   0.50757   0.56222   0.74033
 Eigenvectors required to have negative eigenvalues:
                          D1        A1        R2        A4        A3
   1                    0.86773  -0.45067   0.17992  -0.08445   0.06578
                          A2        R1        R3        R4
   1                    0.01037  -0.00172   0.00125  -0.00088
 RFO step:  Lambda0=1.227116563D-08 Lambda=-1.43814164D-06.
 Linear search not attempted -- option 19 set.
 Iteration  1 RMS(Cart)=  0.00855215 RMS(Int)=  0.00004882
 Iteration  2 RMS(Cart)=  0.00005396 RMS(Int)=  0.00000000
 Iteration  3 RMS(Cart)=  0.00000000 RMS(Int)=  0.00000000
 Variable       Old X    -DE/DX   Delta X   Delta X   Delta X     New X
                                 (Linear)    (Quad)   (Total)
    R1        2.26030  -0.00008   0.00000  -0.00008  -0.00008   2.26022
    R2        4.32356   0.00012   0.00000  -0.00360  -0.00360   4.31995
    R3        1.81982   0.00003   0.00000   0.00004   0.00004   1.81985
    R4        1.81710  -0.00006   0.00000  -0.00013  -0.00013   1.81697
    A1        2.18922   0.00012   0.00000   0.01038   0.01038   2.19960
    A2        1.85452  -0.00002   0.00000   0.00018   0.00018   1.85470
    A3        1.80764   0.00016   0.00000   0.00268   0.00268   1.81032
    A4        2.00775  -0.00001   0.00000  -0.00867  -0.00867   1.99908
    D1        2.03055   0.00002   0.00000   0.00911   0.00911   2.03965
         Item               Value     Threshold  Converged?
 Maximum Force            0.000162     0.000450     YES
 RMS     Force            0.000085     0.000300     YES
 Maximum Displacement     0.015221     0.001800     NO 
 RMS     Displacement     0.008555     0.001200     NO 
 Predicted change in Energy=-7.129349D-07
 GradGradGradGradGradGradGradGradGradGradGradGradGradGradGradGradGradGrad

                          Input orientation:                          
 ---------------------------------------------------------------------
 Center     Atomic      Atomic             Coordinates (Angstroms)
 Number     Number       Type             X           Y           Z
 ---------------------------------------------------------------------
      1          8           0       -0.647925   -0.040592   -0.009405
      2          8           0        0.126122   -0.948447   -0.094284
      3          1           0        1.977025    0.345715    0.259546
      4          8           0        2.305449    1.036520   -0.325554
      5          1           0        2.248171    1.858668    0.169697
 ---------------------------------------------------------------------
                    Distance matrix (angstroms):
                    1          2          3          4          5
     1  O    0.000000
     2  O    1.196057   0.000000
     3  H    2.666820   2.286021   0.000000
     4  O    3.159516   2.956865   0.963024   0.000000
     5  H    3.467945   3.528835   1.539682   0.961500   0.000000
 Stoichiometry    H2O3
 Framework group  C1[X(H2O3)]
 Deg. of freedom     9
 Full point group                 C1      NOp   1
 Largest Abelian subgroup         C1      NOp   1
 Largest concise Abelian subgroup C1      NOp   1
                         Standard orientation:                         
 ---------------------------------------------------------------------
 Center     Atomic      Atomic             Coordinates (Angstroms)
 Number     Number       Type             X           Y           Z
 ---------------------------------------------------------------------
      1          8           0       -1.241349    0.580755   -0.013888
      2          8           0       -1.040686   -0.598176    0.006288
      3          1           0        1.187214   -0.404035    0.480277
      4          8           0        1.858335   -0.025483   -0.097399
      5          1           0        2.202389    0.747272    0.359720
 ---------------------------------------------------------------------
 Rotational constants (GHZ):     41.0098922      4.8683495      4.3883553
 Standard basis: 6-31+G(d,p) (6D, 7F)
 There are    67 symmetry adapted basis functions of A   symmetry.
 Integral buffers will be    262144 words long.
 Raffenetti 2 integral format.
 Two-electron integral symmetry is turned on.
    67 basis functions,   110 primitive gaussians,    67 cartesian basis functions
    13 alpha electrons       13 beta electrons
       nuclear repulsion energy        65.4910787244 Hartrees.
 NAtoms=    5 NActive=    5 NUniq=    5 SFac= 7.50D-01 NAtFMM=   80 NAOKFM=F Big=F
 One-electron integrals computed using PRISM.
 NBasis=    67 RedAO= T  NBF=    67
 NBsUse=    67 1.00D-06 NBFU=    67
 Initial guess read from the read-write file.
 B after Tr=     0.000000    0.000000    0.000000
         Rot=    1.000000    0.000000    0.000000    0.000000 Ang=   0.00 deg.
 Initial guess orbital symmetries:
       Occupied  (A) (A) (A) (A) (A) (A) (A) (A) (A) (A) (A) (A)
                 (A)
       Virtual   (A) (A) (A) (A) (A) (A) (A) (A) (A) (A) (A) (A)
                 (A) (A) (A) (A) (A) (A) (A) (A) (A) (A) (A) (A)
                 (A) (A) (A) (A) (A) (A) (A) (A) (A) (A) (A) (A)
                 (A) (A) (A) (A) (A) (A) (A) (A) (A) (A) (A) (A)
                 (A) (A) (A) (A) (A) (A)
 Requested convergence on RMS density matrix=1.00D-08 within 128 cycles.
 Requested convergence on MAX density matrix=1.00D-06.
 Requested convergence on             energy=1.00D-06.
 No special actions if energy rises.
 Keep R1 ints in memory in canonical form, NReq=3551229.
 SCF Done:  E(RM062X) =  -226.602517443     A.U. after   15 cycles
             Convg  =    0.2268D-08             -V/T =  2.0081
 Calling FoFJK, ICntrl=      2127 FMM=F ISym2X=0 I1Cent= 0 IOpClX= 0 NMat=1 NMatS=1 NMatT=0.
 ***** Axes restored to original set *****
 -------------------------------------------------------------------
 Center     Atomic                   Forces (Hartrees/Bohr)
 Number     Number              X              Y              Z
 -------------------------------------------------------------------
      1        8          -0.000055834   -0.000025852    0.000025787
      2        8          -0.000010691   -0.000017912   -0.000040059
      3        1           0.000046799    0.000054185   -0.000013631
      4        8           0.000023338   -0.000001149   -0.000023456
      5        1          -0.000003612   -0.000009272    0.000051359
 -------------------------------------------------------------------
 Cartesian Forces:  Max     0.000055834 RMS     0.000032286

 GradGradGradGradGradGradGradGradGradGradGradGradGradGradGradGradGradGrad
 Berny optimization.
 Internal  Forces:  Max     0.000124766 RMS     0.000057225
 Search for a saddle point.
 Step number   6 out of a maximum of  100
 All quantities printed in internal units (Hartrees-Bohrs-Radians)
 Swaping is turned off.
 Update second derivatives using D2CorX and points    1    2    3    4    5
                                                      6
 The second derivative matrix:
                          R1        R2        R3        R4        A1
           R1           0.73630
           R2           0.00307   0.01643
           R3           0.02962   0.00132   0.50724
           R4           0.00036   0.00317  -0.00443   0.56163
           A1          -0.00002   0.00952   0.00199   0.00253   0.00770
           A2          -0.00606  -0.00641   0.03347   0.00967  -0.00863
           A3           0.00822   0.01492  -0.00086  -0.00056   0.00716
           A4           0.00696   0.00522  -0.00116   0.00190   0.00445
           D1           0.00048   0.00060  -0.00017   0.00125   0.00232
                          A2        A3        A4        D1
           A2           0.23314
           A3          -0.00366   0.02937
           A4          -0.01271   0.00530   0.00740
           D1          -0.00672  -0.00165   0.00177   0.00047
     Eigenvalues ---   -0.00098   0.00146   0.00460   0.01060   0.04383
     Eigenvalues ---    0.23024   0.50752   0.56216   0.74025
 Eigenvectors required to have negative eigenvalues:
                          D1        A1        R2        A4        A3
   1                    0.88291  -0.42075   0.15796  -0.10219   0.08911
                          A2        R1        R3        R4
   1                    0.00989  -0.00123   0.00087  -0.00070
 RFO step:  Lambda0=3.128349403D-08 Lambda=-1.37166456D-06.
 Linear search not attempted -- option 19 set.
 Iteration  1 RMS(Cart)=  0.01121385 RMS(Int)=  0.00012763
 Iteration  2 RMS(Cart)=  0.00010503 RMS(Int)=  0.00000001
 Iteration  3 RMS(Cart)=  0.00000001 RMS(Int)=  0.00000000
 Variable       Old X    -DE/DX   Delta X   Delta X   Delta X     New X
                                 (Linear)    (Quad)   (Total)
    R1        2.26022   0.00003   0.00000   0.00010   0.00010   2.26032
    R2        4.31995   0.00008   0.00000  -0.00762  -0.00762   4.31234
    R3        1.81985  -0.00001   0.00000  -0.00010  -0.00010   1.81976
    R4        1.81697   0.00000   0.00000   0.00000   0.00000   1.81697
    A1        2.19960   0.00007   0.00000   0.01843   0.01843   2.21803
    A2        1.85470  -0.00003   0.00000  -0.00005  -0.00005   1.85465
    A3        1.81032   0.00012   0.00000   0.00547   0.00547   1.81579
    A4        1.99908   0.00000   0.00000  -0.00980  -0.00980   1.98929
    D1        2.03965   0.00001   0.00000   0.00206   0.00206   2.04172
         Item               Value     Threshold  Converged?
 Maximum Force            0.000125     0.000450     YES
 RMS     Force            0.000057     0.000300     YES
 Maximum Displacement     0.014938     0.001800     NO 
 RMS     Displacement     0.011196     0.001200     NO 
 Predicted change in Energy=-6.701897D-07
 GradGradGradGradGradGradGradGradGradGradGradGradGradGradGradGradGradGrad

                          Input orientation:                          
 ---------------------------------------------------------------------
 Center     Atomic      Atomic             Coordinates (Angstroms)
 Number     Number       Type             X           Y           Z
 ---------------------------------------------------------------------
      1          8           0       -0.655825   -0.047438   -0.008756
      2          8           0        0.126022   -0.948703   -0.093113
      3          1           0        1.970024    0.349686    0.255193
      4          8           0        2.313354    1.038026   -0.324143
      5          1           0        2.255268    1.860292    0.170818
 ---------------------------------------------------------------------
                    Distance matrix (angstroms):
                    1          2          3          4          5
     1  O    0.000000
     2  O    1.196110   0.000000
     3  H    2.668794   2.281989   0.000000
     4  O    3.177063   2.963931   0.962973   0.000000
     5  H    3.485132   3.534657   1.539615   0.961499   0.000000
 Stoichiometry    H2O3
 Framework group  C1[X(H2O3)]
 Deg. of freedom     9
 Full point group                 C1      NOp   1
 Largest Abelian subgroup         C1      NOp   1
 Largest concise Abelian subgroup C1      NOp   1
                         Standard orientation:                         
 ---------------------------------------------------------------------
 Center     Atomic      Atomic             Coordinates (Angstroms)
 Number     Number       Type             X           Y           Z
 ---------------------------------------------------------------------
      1          8           0       -1.251519    0.578662   -0.014606
      2          8           0       -1.039404   -0.598290    0.007069
      3          1           0        1.184963   -0.394551    0.474140
      4          8           0        1.866645   -0.024700   -0.096683
      5          1           0        2.209265    0.749173    0.359619
 ---------------------------------------------------------------------
 Rotational constants (GHZ):     41.1761761      4.8276419      4.3565719
 Standard basis: 6-31+G(d,p) (6D, 7F)
 There are    67 symmetry adapted basis functions of A   symmetry.
 Integral buffers will be    262144 words long.
 Raffenetti 2 integral format.
 Two-electron integral symmetry is turned on.
    67 basis functions,   110 primitive gaussians,    67 cartesian basis functions
    13 alpha electrons       13 beta electrons
       nuclear repulsion energy        65.3976626807 Hartrees.
 NAtoms=    5 NActive=    5 NUniq=    5 SFac= 7.50D-01 NAtFMM=   80 NAOKFM=F Big=F
 One-electron integrals computed using PRISM.
 NBasis=    67 RedAO= T  NBF=    67
 NBsUse=    67 1.00D-06 NBFU=    67
 Initial guess read from the read-write file.
 B after Tr=     0.000000    0.000000    0.000000
         Rot=    1.000000    0.000000    0.000000    0.000000 Ang=   0.00 deg.
 Initial guess orbital symmetries:
       Occupied  (A) (A) (A) (A) (A) (A) (A) (A) (A) (A) (A) (A)
                 (A)
       Virtual   (A) (A) (A) (A) (A) (A) (A) (A) (A) (A) (A) (A)
                 (A) (A) (A) (A) (A) (A) (A) (A) (A) (A) (A) (A)
                 (A) (A) (A) (A) (A) (A) (A) (A) (A) (A) (A) (A)
                 (A) (A) (A) (A) (A) (A) (A) (A) (A) (A) (A) (A)
                 (A) (A) (A) (A) (A) (A)
 Requested convergence on RMS density matrix=1.00D-08 within 128 cycles.
 Requested convergence on MAX density matrix=1.00D-06.
 Requested convergence on             energy=1.00D-06.
 No special actions if energy rises.
 Keep R1 ints in memory in canonical form, NReq=3551229.
 SCF Done:  E(RM062X) =  -226.602518146     A.U. after   15 cycles
             Convg  =    0.3037D-08             -V/T =  2.0081
 Calling FoFJK, ICntrl=      2127 FMM=F ISym2X=0 I1Cent= 0 IOpClX= 0 NMat=1 NMatS=1 NMatT=0.
 ***** Axes restored to original set *****
 -------------------------------------------------------------------
 Center     Atomic                   Forces (Hartrees/Bohr)
 Number     Number              X              Y              Z
 -------------------------------------------------------------------
      1        8           0.000005394   -0.000040780    0.000006725
      2        8          -0.000034672    0.000019848   -0.000023530
      3        1           0.000034206    0.000015533    0.000002269
      4        8          -0.000001795    0.000012769   -0.000029141
      5        1          -0.000003133   -0.000007370    0.000043677
 -------------------------------------------------------------------
 Cartesian Forces:  Max     0.000043677 RMS     0.000023510

 GradGradGradGradGradGradGradGradGradGradGradGradGradGradGradGradGradGrad
 Berny optimization.
 Internal  Forces:  Max     0.000043479 RMS     0.000024657
 Search for a saddle point.
 Step number   7 out of a maximum of  100
 All quantities printed in internal units (Hartrees-Bohrs-Radians)
 Swaping is turned off.
 Update second derivatives using D2CorX and points    1    2    3    4    5
                                                      6    7
 The second derivative matrix:
                          R1        R2        R3        R4        A1
           R1           0.73619
           R2           0.00253   0.01495
           R3           0.02968   0.00154   0.50721
           R4           0.00029   0.00325  -0.00439   0.56160
           A1           0.00082   0.00731   0.00205   0.00237   0.00660
           A2          -0.00597  -0.00605   0.03339   0.00972  -0.00726
           A3           0.00816   0.01288  -0.00064  -0.00078   0.00442
           A4           0.00611   0.00530  -0.00098   0.00180   0.00367
           D1           0.00117   0.00252  -0.00050   0.00136   0.00237
                          A2        A3        A4        D1
           A2           0.23296
           A3          -0.00287   0.02706
           A4          -0.01305   0.00534   0.00777
           D1          -0.00736   0.00061   0.00271   0.00055
     Eigenvalues ---   -0.00071   0.00180   0.00468   0.01067   0.03874
     Eigenvalues ---    0.22999   0.50746   0.56213   0.74014
 Eigenvectors required to have negative eigenvalues:
                          D1        A4        A1        A3        R2
   1                    0.95328  -0.22542  -0.17822   0.07627  -0.05235
                          A2        R3        R4        R1
   1                    0.01139   0.00073  -0.00061  -0.00004
 RFO step:  Lambda0=3.817440397D-08 Lambda=-1.24475864D-07.
 Linear search not attempted -- option 19 set.
 Iteration  1 RMS(Cart)=  0.00294471 RMS(Int)=  0.00000742
 Iteration  2 RMS(Cart)=  0.00000691 RMS(Int)=  0.00000000
 Iteration  3 RMS(Cart)=  0.00000000 RMS(Int)=  0.00000000
 Variable       Old X    -DE/DX   Delta X   Delta X   Delta X     New X
                                 (Linear)    (Quad)   (Total)
    R1        2.26032  -0.00003   0.00000  -0.00006  -0.00006   2.26026
    R2        4.31234   0.00004   0.00000   0.00347   0.00347   4.31581
    R3        1.81976   0.00000   0.00000   0.00001   0.00001   1.81976
    R4        1.81697   0.00000   0.00000   0.00000   0.00000   1.81697
    A1        2.21803   0.00001   0.00000  -0.00125  -0.00125   2.21678
    A2        1.85465  -0.00003   0.00000  -0.00015  -0.00015   1.85451
    A3        1.81579   0.00004   0.00000  -0.00023  -0.00023   1.81557
    A4        1.98929   0.00002   0.00000   0.00277   0.00277   1.99206
    D1        2.04172   0.00001   0.00000  -0.00704  -0.00704   2.03468
         Item               Value     Threshold  Converged?
 Maximum Force            0.000043     0.000450     YES
 RMS     Force            0.000025     0.000300     YES
 Maximum Displacement     0.006212     0.001800     NO 
 RMS     Displacement     0.002946     0.001200     NO 
 Predicted change in Energy=-4.314971D-08
 GradGradGradGradGradGradGradGradGradGradGradGradGradGradGradGradGradGrad

                          Input orientation:                          
 ---------------------------------------------------------------------
 Center     Atomic      Atomic             Coordinates (Angstroms)
 Number     Number       Type             X           Y           Z
 ---------------------------------------------------------------------
      1          8           0       -0.655617   -0.046421   -0.008588
      2          8           0        0.125344   -0.948385   -0.093223
      3          1           0        1.972576    0.348607    0.255208
      4          8           0        2.314559    1.037862   -0.323844
      5          1           0        2.251981    1.860202    0.170448
 ---------------------------------------------------------------------
                    Distance matrix (angstroms):
                    1          2          3          4          5
     1  O    0.000000
     2  O    1.196078   0.000000
     3  H    2.670775   2.283826   0.000000
     4  O    3.177578   2.964967   0.962978   0.000000
     5  H    3.481579   3.532742   1.539536   0.961500   0.000000
 Stoichiometry    H2O3
 Framework group  C1[X(H2O3)]
 Deg. of freedom     9
 Full point group                 C1      NOp   1
 Largest Abelian subgroup         C1      NOp   1
 Largest concise Abelian subgroup C1      NOp   1
                         Standard orientation:                         
 ---------------------------------------------------------------------
 Center     Atomic      Atomic             Coordinates (Angstroms)
 Number     Number       Type             X           Y           Z
 ---------------------------------------------------------------------
      1          8           0       -1.251400    0.578734   -0.014555
      2          8           0       -1.039888   -0.598297    0.006950
      3          1           0        1.186471   -0.396377    0.474300
      4          8           0        1.867253   -0.024833   -0.096505
      5          1           0        2.205810    0.751546    0.358576
 ---------------------------------------------------------------------
 Rotational constants (GHZ):     41.1576723      4.8260316      4.3549725
 Standard basis: 6-31+G(d,p) (6D, 7F)
 There are    67 symmetry adapted basis functions of A   symmetry.
 Integral buffers will be    262144 words long.
 Raffenetti 2 integral format.
 Two-electron integral symmetry is turned on.
    67 basis functions,   110 primitive gaussians,    67 cartesian basis functions
    13 alpha electrons       13 beta electrons
       nuclear repulsion energy        65.3919184848 Hartrees.
 NAtoms=    5 NActive=    5 NUniq=    5 SFac= 7.50D-01 NAtFMM=   80 NAOKFM=F Big=F
 One-electron integrals computed using PRISM.
 NBasis=    67 RedAO= T  NBF=    67
 NBsUse=    67 1.00D-06 NBFU=    67
 Initial guess read from the read-write file.
 B after Tr=     0.000000    0.000000    0.000000
         Rot=    1.000000    0.000000    0.000000    0.000000 Ang=   0.00 deg.
 Initial guess orbital symmetries:
       Occupied  (A) (A) (A) (A) (A) (A) (A) (A) (A) (A) (A) (A)
                 (A)
       Virtual   (A) (A) (A) (A) (A) (A) (A) (A) (A) (A) (A) (A)
                 (A) (A) (A) (A) (A) (A) (A) (A) (A) (A) (A) (A)
                 (A) (A) (A) (A) (A) (A) (A) (A) (A) (A) (A) (A)
                 (A) (A) (A) (A) (A) (A) (A) (A) (A) (A) (A) (A)
                 (A) (A) (A) (A) (A) (A)
 Requested convergence on RMS density matrix=1.00D-08 within 128 cycles.
 Requested convergence on MAX density matrix=1.00D-06.
 Requested convergence on             energy=1.00D-06.
 No special actions if energy rises.
 Keep R1 ints in memory in canonical form, NReq=3551229.
 SCF Done:  E(RM062X) =  -226.602518224     A.U. after   14 cycles
             Convg  =    0.5903D-08             -V/T =  2.0081
 Calling FoFJK, ICntrl=      2127 FMM=F ISym2X=0 I1Cent= 0 IOpClX= 0 NMat=1 NMatS=1 NMatT=0.
 ***** Axes restored to original set *****
 -------------------------------------------------------------------
 Center     Atomic                   Forces (Hartrees/Bohr)
 Number     Number              X              Y              Z
 -------------------------------------------------------------------
      1        8          -0.000024562    0.000002245    0.000011558
      2        8           0.000006485   -0.000017601   -0.000026263
      3        1           0.000027481    0.000011681   -0.000007092
      4        8          -0.000006914    0.000002997   -0.000021417
      5        1          -0.000002490    0.000000679    0.000043214
 -------------------------------------------------------------------
 Cartesian Forces:  Max     0.000043214 RMS     0.000018466

 GradGradGradGradGradGradGradGradGradGradGradGradGradGradGradGradGradGrad
 Berny optimization.
 Internal  Forces:  Max     0.000031207 RMS     0.000018201
 Search for a saddle point.
 Step number   8 out of a maximum of  100
 All quantities printed in internal units (Hartrees-Bohrs-Radians)
 Swaping is turned off.
 Update second derivatives using D2CorX and points    1    2    3    4    5
                                                      6    7    8
 The second derivative matrix:
                          R1        R2        R3        R4        A1
           R1           0.73616
           R2           0.00141   0.01241
           R3           0.02970   0.00179   0.50719
           R4           0.00026   0.00289  -0.00438   0.56159
           A1           0.00029   0.00636   0.00218   0.00213   0.00627
           A2          -0.00586  -0.00489   0.03334   0.00978  -0.00669
           A3           0.00782   0.01060  -0.00047  -0.00104   0.00340
           A4           0.00550   0.00408  -0.00082   0.00143   0.00316
           D1           0.00377   0.00453  -0.00101   0.00254   0.00273
                          A2        A3        A4        D1
           A2           0.23276
           A3          -0.00231   0.02578
           A4          -0.01252   0.00452   0.00719
           D1          -0.00960   0.00381   0.00401   0.00314
     Eigenvalues ---    0.00026   0.00181   0.00492   0.01072   0.03535
     Eigenvalues ---    0.22979   0.50742   0.56212   0.74010
 Eigenvectors required to have negative eigenvalues:
                          D1        A4        R2        A1        A3
   1                    0.87639  -0.38820  -0.26942   0.08298   0.04028
                          A2        R4        R1        R3
   1                    0.01228  -0.00203  -0.00148   0.00101
 RFO step:  Lambda0=2.630585431D-04 Lambda=-6.71677038D-08.
 Linear search not attempted -- option 19 set.
 Maximum step size (   0.300) exceeded in Quadratic search.
    -- Step size scaled by   0.003
 Iteration  1 RMS(Cart)=  0.08157621 RMS(Int)=  0.02170661
 Iteration  2 RMS(Cart)=  0.02739794 RMS(Int)=  0.00076832
 Iteration  3 RMS(Cart)=  0.00061870 RMS(Int)=  0.00000012
 Iteration  4 RMS(Cart)=  0.00000014 RMS(Int)=  0.00000000
 Variable       Old X    -DE/DX   Delta X   Delta X   Delta X     New X
                                 (Linear)    (Quad)   (Total)
    R1        2.26026   0.00002   0.00000  -0.00044  -0.00044   2.25982
    R2        4.31581   0.00002   0.00000  -0.08082  -0.08082   4.23499
    R3        1.81976   0.00000   0.00000   0.00030   0.00030   1.82007
    R4        1.81697   0.00001   0.00000  -0.00061  -0.00061   1.81636
    A1        2.21678   0.00001   0.00000   0.02489   0.02489   2.24166
    A2        1.85451  -0.00002   0.00000   0.00368   0.00368   1.85819
    A3        1.81557   0.00003   0.00000   0.01209   0.01209   1.82765
    A4        1.99206   0.00001   0.00000  -0.11646  -0.11646   1.87560
    D1        2.03468   0.00001   0.00000   0.26292   0.26292   2.29760
         Item               Value     Threshold  Converged?
 Maximum Force            0.000031     0.000450     YES
 RMS     Force            0.000018     0.000300     YES
 Maximum Displacement     0.227007     0.001800     NO 
 RMS     Displacement     0.105402     0.001200     NO 
 Predicted change in Energy= 1.273531D-05
 GradGradGradGradGradGradGradGradGradGradGradGradGradGradGradGradGradGrad

                          Input orientation:                          
 ---------------------------------------------------------------------
 Center     Atomic      Atomic             Coordinates (Angstroms)
 Number     Number       Type             X           Y           Z
 ---------------------------------------------------------------------
      1          8           0       -0.668335   -0.087728   -0.010627
      2          8           0        0.143028   -0.961999   -0.096551
      3          1           0        1.889519    0.395638    0.262525
      4          8           0        2.272523    1.048745   -0.332788
      5          1           0        2.372108    1.857208    0.177441
 ---------------------------------------------------------------------
                    Distance matrix (angstroms):
                    1          2          3          4          5
     1  O    0.000000
     2  O    1.195843   0.000000
     3  H    2.617416   2.241059   0.000000
     4  O    3.169227   2.938307   0.963139   0.000000
     5  H    3.614199   3.604413   1.541531   0.961178   0.000000
 Stoichiometry    H2O3
 Framework group  C1[X(H2O3)]
 Deg. of freedom     9
 Full point group                 C1      NOp   1
 Largest Abelian subgroup         C1      NOp   1
 Largest concise Abelian subgroup C1      NOp   1
                         Standard orientation:                         
 ---------------------------------------------------------------------
 Center     Atomic      Atomic             Coordinates (Angstroms)
 Number     Number       Type             X           Y           Z
 ---------------------------------------------------------------------
      1          8           0       -1.260076    0.574808   -0.014730
      2          8           0       -1.026636   -0.597784    0.009271
      3          1           0        1.147670   -0.325226    0.478792
      4          8           0        1.851863   -0.018621   -0.102365
      5          1           0        2.331120    0.658003    0.383799
 ---------------------------------------------------------------------
 Rotational constants (GHZ):     41.9482762      4.8489281      4.3853109
 Standard basis: 6-31+G(d,p) (6D, 7F)
 There are    67 symmetry adapted basis functions of A   symmetry.
 Integral buffers will be    262144 words long.
 Raffenetti 2 integral format.
 Two-electron integral symmetry is turned on.
    67 basis functions,   110 primitive gaussians,    67 cartesian basis functions
    13 alpha electrons       13 beta electrons
       nuclear repulsion energy        65.5287313213 Hartrees.
 NAtoms=    5 NActive=    5 NUniq=    5 SFac= 7.50D-01 NAtFMM=   80 NAOKFM=F Big=F
 One-electron integrals computed using PRISM.
 NBasis=    67 RedAO= T  NBF=    67
 NBsUse=    67 1.00D-06 NBFU=    67
 Initial guess read from the read-write file.
 B after Tr=     0.000000    0.000000    0.000000
[...]
 Alpha  occ. eigenvalues --   -0.92708  -0.64212  -0.63584  -0.61551  -0.60330
 Alpha  occ. eigenvalues --   -0.46549  -0.39416  -0.35291
 Alpha virt. eigenvalues --   -0.12840   0.06584   0.09404   0.11474   0.13390
 Alpha virt. eigenvalues --    0.17258   0.18927   0.19521   0.20545   0.21247
 Alpha virt. eigenvalues --    0.24601   0.26674   0.30020   0.31661   0.34211
 Alpha virt. eigenvalues --    0.38524   0.98549   1.05220   1.08279   1.11390
 Alpha virt. eigenvalues --    1.12058   1.13130   1.16080   1.18621   1.19852
 Alpha virt. eigenvalues --    1.20374   1.22860   1.29159   1.34987   1.54584
 Alpha virt. eigenvalues --    1.56348   1.56790   1.58624   1.60026   1.63773
 Alpha virt. eigenvalues --    1.65050   1.72446   1.97583   1.98918   2.28518
 Alpha virt. eigenvalues --    2.30029   2.55563   2.57927   2.61458   2.63064
 Alpha virt. eigenvalues --    2.68276   2.71598   2.97104   3.06390   3.41486
 Alpha virt. eigenvalues --    3.56401   3.72571   3.98400   4.09838
          Condensed to atoms (all electrons):
              1          2          3          4          5
     1  O    7.655209   0.327857  -0.001142   0.016746  -0.000487
     2  O    0.327857   7.679369   0.002549  -0.009624  -0.000374
     3  H   -0.001142   0.002549   0.365560   0.280234  -0.023126
     4  O    0.016746  -0.009624   0.280234   8.177750   0.286886
     5  H   -0.000487  -0.000374  -0.023126   0.286886   0.363074
 Mulliken atomic charges:
              1
     1  O    0.001817
     2  O    0.000223
     3  H    0.375926
     4  O   -0.751992
     5  H    0.374027
 Sum of Mulliken atomic charges =   0.00000
 Mulliken charges with hydrogens summed into heavy atoms:
              1
     1  O    0.001817
     2  O    0.000223
     4  O   -0.002040
 Sum of Mulliken charges with hydrogens summed into heavy atoms =   0.00000
 APT atomic charges:
              1
     1  O    0.012663
     2  O   -0.019999
     3  H    0.317382
     4  O   -0.607096
     5  H    0.297049
 Sum of APT charges=   0.00000
 APT Atomic charges with hydrogens summed into heavy atoms:
              1
     1  O    0.012663
     2  O   -0.019999
     3  H    0.000000
     4  O    0.007335
     5  H    0.000000
 Sum of APT charges=   0.00000
 Electronic spatial extent (au):  <R**2>=            260.2312
 Charge=              0.0000 electrons
 Dipole moment (field-independent basis, Debye):
    X=             -0.7745    Y=              0.8185    Z=              1.8833  Tot=              2.1947
 Quadrupole moment (field-independent basis, Debye-Ang):
   XX=            -19.1504   YY=            -16.2591   ZZ=            -16.4631
   XY=              2.9601   XZ=              2.3147   YZ=              0.1252
 Traceless Quadrupole moment (field-independent basis, Debye-Ang):
   XX=             -1.8595   YY=              1.0318   ZZ=              0.8278
   XY=              2.9601   XZ=              2.3147   YZ=              0.1252
 Octapole moment (field-independent basis, Debye-Ang**2):
  XXX=             -5.6502  YYY=              1.1885  ZZZ=              1.2680  XYY=              1.9932
  XXY=              8.4274  XXZ=              7.2698  XZZ=             -1.4176  YZZ=              0.1389
  YYZ=              0.8404  XYZ=              1.0221
 Hexadecapole moment (field-independent basis, Debye-Ang**3):
 XXXX=           -245.5457 YYYY=            -35.3109 ZZZZ=            -14.6669 XXXY=             22.2180
 XXXZ=              7.1021 YYYX=              2.9958 YYYZ=              0.0848 ZZZX=              1.6661
 ZZZY=              0.0536 XXYY=            -41.3263 XXZZ=            -41.2821 YYZZ=             -8.2864
 XXYZ=              2.2870 YYXZ=              0.9789 ZZXY=              0.7713
 N-N= 6.537921399572D+01 E-N=-6.652664228408D+02  KE= 2.247819681283D+02
  Exact polarizability:  14.960  -0.458  19.194   0.178  -0.025  11.943
 Approx polarizability:  14.192  -0.938  25.428  -0.586  -0.182  12.799
 Calling FoFJK, ICntrl=    100127 FMM=F ISym2X=0 I1Cent= 0 IOpClX= 0 NMat=1 NMatS=1 NMatT=0.
 Full mass-weighted force constant matrix:
 Low frequencies ---   -0.0018   -0.0007    0.0004    8.3547   25.3372   57.4302
 Low frequencies ---   72.0579   78.6351  147.6017
 Diagonal vibrational polarizability:
      667.2987629     180.2724123     173.8427757
 Harmonic frequencies (cm**-1), IR intensities (KM/Mole), Raman scattering
 activities (A**4/AMU), depolarization ratios for plane and unpolarized
 incident light, reduced masses (AMU), force constants (mDyne/A),
 and normal coordinates:
                     1                      2                      3
                     A                      A                      A
 Frequencies --    71.8978                75.1711               147.1822
 Red. masses --     2.3653                 2.4358                 3.1369
 Frc consts  --     0.0072                 0.0081                 0.0400
 IR Inten    --    30.7052               140.0740                37.9323
  Atom  AN      X      Y      Z        X      Y      Z        X      Y      Z
     1   8     0.25   0.00   0.01    -0.13   0.01   0.02    -0.11   0.01   0.04
     2   8    -0.09  -0.06  -0.01    -0.09   0.01  -0.01     0.29   0.08  -0.05
     3   1    -0.03  -0.17  -0.03    -0.01  -0.09  -0.33    -0.10   0.09   0.21
     4   8    -0.11   0.04   0.01     0.26  -0.05   0.02    -0.14  -0.12   0.03
     5   1    -0.79   0.46  -0.22    -0.69   0.50  -0.24    -0.56   0.40  -0.57
                     4                      5                      6
                     A                      A                      A
 Frequencies --   173.0375               269.4722              1598.4255
 Red. masses --     1.2041                 1.0353                 1.0834
 Frc consts  --     0.0212                 0.0443                 1.6308
 IR Inten    --    93.8968               166.9988                81.9776
  Atom  AN      X      Y      Z        X      Y      Z        X      Y      Z
     1   8     0.02  -0.01   0.04     0.03  -0.01   0.00     0.00   0.00   0.00
     2   8    -0.07  -0.03  -0.06     0.03  -0.01   0.01     0.00   0.00   0.00
     3   1    -0.06   0.63   0.35    -0.70   0.44  -0.53     0.11   0.52   0.47
     4   8     0.03  -0.02   0.03     0.00  -0.01   0.01     0.02  -0.03  -0.06
     5   1     0.36   0.18  -0.55    -0.04  -0.08   0.14    -0.44  -0.12   0.53
                     7                      8                      9
                     A                      A                      A
 Frequencies --  1773.4655              3882.1398              4007.0822
 Red. masses --    15.9509                 1.0446                 1.0832
 Frc consts  --    29.5584                 9.2756                10.2470
 IR Inten    --     0.0420                22.2923                94.5805
  Atom  AN      X      Y      Z        X      Y      Z        X      Y      Z
     1   8    -0.12   0.70  -0.01     0.00   0.00   0.00     0.00   0.00   0.00
     2   8     0.13  -0.69   0.01     0.00   0.00   0.00     0.00   0.00   0.00
     3   1     0.01  -0.04  -0.02     0.55   0.33  -0.43    -0.45  -0.25   0.38
     4   8     0.00   0.00   0.00    -0.02   0.01   0.04     0.04   0.05   0.00
     5   1     0.02   0.00  -0.03    -0.24  -0.53  -0.27    -0.27  -0.63  -0.36

 -------------------
 - Thermochemistry -
 -------------------
 Temperature   298.150 Kelvin.  Pressure   1.00000 Atm.
 Atom     1 has atomic number  8 and mass  15.99491
 Atom     2 has atomic number  8 and mass  15.99491
 Atom     3 has atomic number  1 and mass   1.00783
 Atom     4 has atomic number  8 and mass  15.99491
 Atom     5 has atomic number  1 and mass   1.00783
 Molecular mass:    50.00039 amu.
 Principal axes and moments of inertia in atomic units:
                           1         2         3
     Eigenvalues --    43.90629 374.16825 414.69370
           X            0.99983   0.01283   0.01351
           Y           -0.01295   0.99988   0.00888
           Z           -0.01339  -0.00906   0.99987
 This molecule is an asymmetric top.
 Rotational symmetry number  1.
 Rotational temperatures (Kelvin)      1.97270     0.23148     0.20886
 Rotational constants (GHZ):          41.10439     4.82334     4.35199
 Zero-point vibrational energy      71763.2 (Joules/Mol)
                                   17.15182 (Kcal/Mol)
 Warning -- explicit consideration of   5 degrees of freedom as
           vibrations may cause significant error
 Vibrational temperatures:    103.44   108.15   211.76   248.96   387.71
          (Kelvin)           2299.77  2551.62  5585.53  5765.29
 
 Zero-point correction=                           0.027333 (Hartree/Particle)
 Thermal correction to Energy=                    0.033456
 Thermal correction to Enthalpy=                  0.034400
 Thermal correction to Gibbs Free Energy=        -0.001674
 Sum of electronic and zero-point Energies=           -226.575185
 Sum of electronic and thermal Energies=              -226.569063
 Sum of electronic and thermal Enthalpies=            -226.568118
 Sum of electronic and thermal Free Energies=         -226.604192
 
                     E (Thermal)             CV                S
                      KCal/Mol        Cal/Mol-Kelvin    Cal/Mol-Kelvin
 Total                   20.994             15.486             75.924
 Electronic               0.000              0.000              0.000
 Translational            0.889              2.981             37.652
 Rotational               0.889              2.981             23.437
 Vibrational             19.216              9.525             14.835
 Vibration     1          0.598              1.967              4.101
 Vibration     2          0.599              1.966              4.013
 Vibration     3          0.617              1.906              2.708
 Vibration     4          0.627              1.876              2.402
 Vibration     5          0.674              1.729              1.600
                       Q            Log10(Q)             Ln(Q)
 Total Bot       0.588768D+01          0.769944          1.772863
 Total V=0       0.219939D+14         13.342302         30.721786
 Vib (Bot)       0.143391D-10        -10.843478        -24.968031
 Vib (Bot)    1  0.286781D+01          0.457550          1.053549
 Vib (Bot)    2  0.274165D+01          0.438012          1.008560
 Vib (Bot)    3  0.137878D+01          0.139496          0.321202
 Vib (Bot)    4  0.116347D+01          0.065757          0.151411
 Vib (Bot)    5  0.717378D+00         -0.144252         -0.332152
 Vib (V=0)       0.535648D+02          1.728880          3.980892
 Vib (V=0)    1  0.341107D+01          0.532891          1.227026
 Vib (V=0)    2  0.328687D+01          0.516783          1.189936
 Vib (V=0)    3  0.196664D+01          0.293726          0.676329
 Vib (V=0)    4  0.176636D+01          0.247080          0.568922
 Vib (V=0)    5  0.137443D+01          0.138123          0.318041
 Electronic      0.100000D+01          0.000000          0.000000
 Translational   0.138968D+08          7.142915         16.447170
 Rotational      0.295466D+05          4.470507         10.293723
 ***** Axes restored to original set *****
 -------------------------------------------------------------------
 Center     Atomic                   Forces (Hartrees/Bohr)
 Number     Number              X              Y              Z
 -------------------------------------------------------------------
      1        8           0.000000333   -0.000004340    0.000013850
      2        8           0.000005015   -0.000001572   -0.000023703
      3        1           0.000004043   -0.000009207   -0.000015091
      4        8          -0.000006831    0.000017461   -0.000001675
      5        1          -0.000002560   -0.000002342    0.000026619
 -------------------------------------------------------------------
 Cartesian Forces:  Max     0.000026619 RMS     0.000012122

 GradGradGradGradGradGradGradGradGradGradGradGradGradGradGradGradGradGrad
 Berny optimization.
 Internal  Forces:  Max     0.000002961 RMS     0.000001682
 Search for a saddle point.
 Step number   1 out of a maximum of    2
 All quantities printed in internal units (Hartrees-Bohrs-Radians)
 Swaping is turned off.
 Second derivative matrix not updated -- analytic derivatives used.
 The second derivative matrix:
                          R1        R2        R3        R4        A1
           R1           0.95259
           R2          -0.00074   0.00629
           R3          -0.00004   0.00274   0.55764
           R4          -0.00005   0.00002  -0.00722   0.56253
           A1          -0.00297   0.00437   0.00350   0.00023   0.00674
           A2           0.00094   0.00123   0.02796   0.02948   0.00045
           A3           0.00226   0.00211  -0.00131  -0.00052   0.00213
           A4           0.00082   0.00017  -0.00079   0.00049   0.00066
           D1          -0.00051   0.00064  -0.00020   0.00118   0.00126
                          A2        A3        A4        D1
           A2           0.15110
           A3          -0.00083   0.01552
           A4          -0.00154   0.00053   0.00338
           D1          -0.00181  -0.00065   0.00111   0.00102
     Eigenvalues ---    0.00034   0.00205   0.00375   0.00967   0.01703
     Eigenvalues ---    0.14708   0.55637   0.56791   0.95261
 Eigenvectors required to have negative eigenvalues:
                          D1        A4        A1        A3        R2
   1                    0.92914  -0.30622  -0.19167   0.07515   0.02148
                          A2        R4        R3        R1
   1                    0.00912  -0.00201   0.00069  -0.00001
 Eigenvalue     1 is   3.40D-04 should be less than     0.000000 Eigenvector:
                          D1        A4        A1        A3        R2
   1                    0.92914  -0.30622  -0.19167   0.07515   0.02148
                          A2        R4        R3        R1
   1                    0.00912  -0.00201   0.00069  -0.00001
 Angle between quadratic step and forces=  98.51 degrees.
 Linear search not attempted -- option 19 set.
 Iteration  1 RMS(Cart)=  0.00142235 RMS(Int)=  0.00000271
 Iteration  2 RMS(Cart)=  0.00000219 RMS(Int)=  0.00000000
 Iteration  3 RMS(Cart)=  0.00000000 RMS(Int)=  0.00000000
 Variable       Old X    -DE/DX   Delta X   Delta X   Delta X     New X
                                 (Linear)    (Quad)   (Total)
    R1        2.26026   0.00000   0.00000   0.00000   0.00000   2.26027
    R2        4.32370   0.00000   0.00000  -0.00007  -0.00007   4.32364
    R3        1.81975   0.00000   0.00000   0.00001   0.00001   1.81976
    R4        1.81704   0.00000   0.00000  -0.00001  -0.00001   1.81703
    A1        2.21374   0.00000   0.00000  -0.00082  -0.00082   2.21292
    A2        1.85414   0.00000   0.00000   0.00004   0.00004   1.85418
    A3        1.81495   0.00000   0.00000   0.00027   0.00027   1.81522
    A4        2.00076   0.00000   0.00000  -0.00049  -0.00049   2.00027
    D1        2.01567   0.00000   0.00000   0.00381   0.00381   2.01948
         Item               Value     Threshold  Converged?
 Maximum Force            0.000003     0.000450     YES
 RMS     Force            0.000002     0.000300     YES
 Maximum Displacement     0.003205     0.001800     NO 
 RMS     Displacement     0.001423     0.001200     NO 
 Predicted change in Energy= 6.540029D-09
 Optimization completed on the basis of negligible forces.
    -- Stationary point found.
                           ----------------------------
                           !   Optimized Parameters   !
                           ! (Angstroms and Degrees)  !
 --------------------------                            --------------------------
 ! Name  Definition              Value          Derivative Info.                !
 --------------------------------------------------------------------------------
 ! R1    R(1,2)                  1.1961         -DE/DX =    0.0                 !
 ! R2    R(2,3)                  2.288          -DE/DX =    0.0                 !
 ! R3    R(3,4)                  0.963          -DE/DX =    0.0                 !
 ! R4    R(4,5)                  0.9615         -DE/DX =    0.0                 !
 ! A1    A(2,3,4)              126.838          -DE/DX =    0.0                 !
 ! A2    A(3,4,5)              106.2346         -DE/DX =    0.0                 !
 ! A3    L(1,2,3,4,-1)         103.9892         -DE/DX =    0.0                 !
 ! A4    L(1,2,3,4,-2)         114.6351         -DE/DX =    0.0                 !
 ! D1    D(2,3,4,5)            115.4894         -DE/DX =    0.0                 !
 --------------------------------------------------------------------------------
 GradGradGradGradGradGradGradGradGradGradGradGradGradGradGradGradGradGrad

 1|1|UNPC-DESKTOP-319GPER|Freq|RM062X|6-31+G(d,p)|H2O3|SAGAD|08-Feb-202
 1|0||#N Geom=AllCheck Guess=TCheck SCRF=Check GenChk RM062X/6-31+G(d,p
 ) Freq||ts2||0,1|O,-0.6548596913,-0.0437079994,-0.0080503896|O,0.12404
 05819,-0.9474196381,-0.0930625156|H,1.9793881398,0.3455410414,0.254658
 3087|O,2.3173684089,1.0376637646,-0.3233088803|H,2.2429050507,1.859787
 3315,0.1697634769||Version=IA32W-G09RevA.02|State=1-A|HF=-226.6025184|
 RMSD=7.899e-011|RMSF=1.212e-005|ZeroPoint=0.0273332|Thermal=0.0334558|
 Dipole=-0.3563751,0.0924123,0.7810335|DipoleDeriv=0.009406,-0.0026069,
 -0.0088513,-0.006662,0.024501,-0.0095107,0.0137774,-0.0129331,0.004083
 1,-0.0405296,-0.0140589,-0.0033164,-0.0148146,-0.0276256,0.0039742,-0.
 0347485,0.0048527,0.0081591,0.4199378,0.0087502,0.0716033,0.0543886,0.
 3087327,0.0326908,0.0943118,0.05261,0.2234755,-0.7568682,-0.0257644,-0
 .1171445,-0.0447769,-0.5769536,0.0405106,-0.1255075,0.0373677,-0.48746
 6,0.3680539,0.03368,0.0577089,0.0118649,0.2713455,-0.0676649,0.0521667
 ,-0.0818973,0.2517483|Polar=16.4508861,-2.0496535,17.6667477,-0.328125
 9,0.477104,11.9787474|PG=C01 [X(H2O3)]|NImag=0||0.40665593,-0.46726625
 ,0.54449653,-0.04413337,0.05106661,0.00629418,-0.40579413,0.46812584,0
 .04425808,0.40902809,0.46602962,-0.54367376,-0.05105726,-0.46407815,0.
 54555816,0.04458511,-0.05118746,-0.00619025,-0.04443949,0.05109163,0.0
 0648109,-0.00176051,0.00042956,-0.00046771,-0.00036108,-0.00126055,0.0
 0013936,0.07102873,0.00111833,-0.00152455,0.00001408,-0.00190498,0.000
 67816,-0.00003434,0.13666104,0.32382155,-0.00090580,0.00023547,0.00013
 204,0.00055417,-0.00016999,-0.00066935,-0.11725528,-0.21516232,0.21104
 802,0.00062506,-0.00160475,0.00041706,-0.00218508,0.00009725,-0.000460
 93,-0.06968957,-0.12067569,0.12552541,0.08075585,0.00013081,0.00040294
 ,-0.00003833,-0.00193159,-0.00201235,0.00007480,-0.14207516,-0.2973313
 7,0.24024833,0.10489230,0.70941938,0.00042640,0.00007075,0.00003608,-0
 .00074585,-0.00020451,0.00012712,0.11748902,0.18580250,-0.22049238,-0.
 15612933,0.01148128,0.39337680,0.00027365,0.00031560,-0.00007406,-0.00
 068779,-0.00078817,0.00017595,0.00078243,-0.01519870,-0.00791850,-0.00
 950626,0.03898363,0.03895977,0.00913797,-0.00001252,0.00029885,0.00001
 490,-0.00021111,-0.00055021,0.00005537,0.00624511,-0.02564379,-0.02515
 149,0.01729088,-0.41047860,-0.19715001,-0.02331236,0.43637376,0.000027
 66,-0.00018537,-0.00027206,0.00037310,0.00034014,0.00025140,0.00009460
 ,0.02938009,0.00998167,0.03064779,-0.25176608,-0.17304762,-0.03114315,
 0.22223123,0.16308661||-0.00000033,0.00000434,-0.00001385,-0.00000501,
 0.00000157,0.00002370,-0.00000404,0.00000921,0.00001509,0.00000683,-0.
 00001746,0.00000167,0.00000256,0.00000234,-0.00002662|||@


 CHARLIE BROWN -- WHICH DO YOU THINK LASTS LONGER IN LIFE, THE GOOD THINGS 
                  OR THE BAD THINGS?
 LINUS --         GOOD THINGS LAST EIGHT SECONDS ..
                  BAD THINGS LAST THREE WEEKS
 CHARLIE BROWN -- WHAT ABOUT IN BETWEEN?
 SNOOPY --        IN BETWEEN YOU SHOULD TAKE A NAP ...
 Job cpu time:  0 days  0 hours  0 minutes 12.0 seconds.
 File lengths (MBytes):  RWF=      6 Int=      0 D2E=      0 Chk=      1 Scr=      1
 Normal termination of Gaussian 09 at Mon Feb 08 23:41:43 2021.
