 Entering Link 1 = C:\G09W\l1.exe PID=      4056.
  
 Copyright (c) 1988,1990,1992,1993,1995,1998,2003,2009, Gaussian, Inc.
                  All Rights Reserved.
  
 This is part of the Gaussian(R) 09 program.  It is based on
 the Gaussian(R) 03 system (copyright 2003, Gaussian, Inc.),
 the Gaussian(R) 98 system (copyright 1998, Gaussian, Inc.),
 the Gaussian(R) 94 system (copyright 1995, Gaussian, Inc.),
 the Gaussian 92(TM) system (copyright 1992, Gaussian, Inc.),
 the Gaussian 90(TM) system (copyright 1990, Gaussian, Inc.),
 the Gaussian 88(TM) system (copyright 1988, Gaussian, Inc.),
 the Gaussian 86(TM) system (copyright 1986, Carnegie Mellon
 University), and the Gaussian 82(TM) system (copyright 1983,
 Carnegie Mellon University). Gaussian is a federally registered
 trademark of Gaussian, Inc.
  
 This software contains proprietary and confidential information,
 including trade secrets, belonging to Gaussian, Inc.
  
 This software is provided under written license and may be
 used, copied, transmitted, or stored only in accord with that
 written license.
  
 The following legend is applicable only to US Government
 contracts under FAR:
  
                    RESTRICTED RIGHTS LEGEND
  
 Use, reproduction and disclosure by the US Government is
 subject to restrictions as set forth in subparagraphs (a)
 and (c) of the Commercial Computer Software - Restricted
 Rights clause in FAR 52.227-19.
  
 Gaussian, Inc.
 340 Quinnipiac St., Bldg. 40, Wallingford CT 06492
  
  
 ---------------------------------------------------------------
 Warning -- This program may not be used in any manner that
 competes with the business of Gaussian, Inc. or will provide
 assistance to any competitor of Gaussian, Inc.  The licensee
 of this program is prohibited from giving any competitor of
 Gaussian, Inc. access to this program.  By using this program,
 the user acknowledges that Gaussian, Inc. is engaged in the
 business of creating and licensing software in the field of
 computational chemistry and represents and warrants to the
 licensee that it is not a competitor of Gaussian, Inc. and that
 it will not use this program in any manner prohibited above.
 ---------------------------------------------------------------
  

 Cite this work as:
 Gaussian 09, Revision A.02,
 M. J. Frisch, G. W. Trucks, H. B. Schlegel, G. E. Scuseria, 
 M. A. Robb, J. R. Cheeseman, G. Scalmani, V. Barone, B. Mennucci, 
 G. A. Petersson, H. Nakatsuji, M. Caricato, X. Li, H. P. Hratchian, 
 A. F. Izmaylov, J. Bloino, G. Zheng, J. L. Sonnenberg, M. Hada, 
 M. Ehara, K. Toyota, R. Fukuda, J. Hasegawa, M. Ishida, T. Nakajima, 
 Y. Honda, O. Kitao, H. Nakai, T. Vreven, J. A. Montgomery, Jr., 
 J. E. Peralta, F. Ogliaro, M. Bearpark, J. J. Heyd, E. Brothers, 
 K. N. Kudin, V. N. Staroverov, R. Kobayashi, J. Normand, 
 K. Raghavachari, A. Rendell, J. C. Burant, S. S. Iyengar, J. Tomasi, 
 M. Cossi, N. Rega, J. M. Millam, M. Klene, J. E. Knox, J. B. Cross, 
 V. Bakken, C. Adamo, J. Jaramillo, R. Gomperts, R. E. Stratmann, 
 O. Yazyev, A. J. Austin, R. Cammi, C. Pomelli, J. W. Ochterski, 
 R. L. Martin, K. Morokuma, V. G. Zakrzewski, G. A. Voth, 
 P. Salvador, J. J. Dannenberg, S. Dapprich, A. D. Daniels, 
 O. Farkas, J. B. Foresman, J. V. Ortiz, J. Cioslowski, 
 and D. J. Fox, Gaussian, Inc., Wallingford CT, 2009.
 
 ******************************************
 Gaussian 09:  IA32W-G09RevA.02 11-Jun-2009
                02-Feb-2021 
 ******************************************
 %chk=D:\Documents\rayGit\FQ\quimicaComputacional\proyecto\decompositionHydrogenP
 eroxide\decompositionCatalyzedByIodine\step1\ts\ts.chk
 %mem=1500MB
 %nprocshared=4
 Will use up to    4 processors via shared memory.
 ----------------------------------------------------------------------
 # opt=(calcfc,ts,noeigen) freq=noraman lanl2dz scrf=smd iop(1/8=3) m06
 2x
 ----------------------------------------------------------------------
 1/5=1,8=3,10=4,11=1,14=-1,18=20,26=3,38=1/1,3;
 2/9=110,12=2,17=6,18=5,40=1/2;
 3/5=6,6=3,11=2,16=1,25=1,30=1,70=32201,71=2,72=1,74=-55/1,2,3;
 4//1;
 5/5=2,38=5/2;
 8/6=4,10=90,11=11/1;
 11/6=1,8=1,9=11,15=111,16=1/1,2,10;
 10/6=1,7=6,13=1/2;
 6/7=2,8=2,9=2,10=2,28=1/1;
 7/10=1,18=20,25=1/1,2,3,16;
 1/5=1,8=3,10=4,11=1,14=-1,18=20/3(2);
 2/9=110/2;
 99//99;
 2/9=110/2;
 3/5=6,6=3,11=2,16=1,25=1,30=1,70=32205,71=1,74=-55/1,2,3;
 4/5=5,16=3/1;
 5/5=2,38=5/2;
 7//1,2,3,16;
 1/5=1,8=3,11=1,14=-1,18=20/3(-5);
 2/9=110/2;
 6/7=2,8=2,9=2,10=2,19=2,28=1/1;
 99/9=1/99;
 -----------------------------
 Hydrogen peroxide with iodine
 -----------------------------
 Symbolic Z-matrix:
 Charge =  0 Multiplicity = 2
 O                    -1.32727   0.70831  -0.04803 
 H                    -1.80727   0.70831  -0.87942 
 O                     0.32926   0.70831  -0.15588 
 H                     0.64926   1.61341  -0.15588 
 I                    -2.25574   0.70831   1.72339 
 

 GradGradGradGradGradGradGradGradGradGradGradGradGradGradGradGradGradGrad
 Berny optimization.
 Initialization pass.
                           ----------------------------
                           !    Initial Parameters    !
                           ! (Angstroms and Degrees)  !
 --------------------------                            --------------------------
 ! Name  Definition              Value          Derivative Info.                !
 --------------------------------------------------------------------------------
 ! R1    R(1,2)                  0.96           calculate D2E/DX2 analytically  !
 ! R2    R(1,3)                  1.66           calculate D2E/DX2 analytically  !
 ! R3    R(1,5)                  2.0            calculate D2E/DX2 analytically  !
 ! R4    R(3,4)                  0.96           calculate D2E/DX2 analytically  !
 ! A1    A(2,1,3)              116.2749         calculate D2E/DX2 analytically  !
 ! A2    A(2,1,5)              122.3392         calculate D2E/DX2 analytically  !
 ! A3    A(3,1,5)              121.3858         calculate D2E/DX2 analytically  !
 ! A4    A(1,3,4)              109.4284         calculate D2E/DX2 analytically  !
 ! D1    D(2,1,3,4)             91.3159         calculate D2E/DX2 analytically  !
 ! D2    D(5,1,3,4)            -88.6841         calculate D2E/DX2 analytically  !
 --------------------------------------------------------------------------------
 Trust Radius=3.00D-02 FncErr=1.00D-07 GrdErr=1.00D-06
 Number of steps in this run=  20 maximum allowed number of steps= 100.
 Search for a saddle point of order  1.
 GradGradGradGradGradGradGradGradGradGradGradGradGradGradGradGradGradGrad

                          Input orientation:                          
 ---------------------------------------------------------------------
 Center     Atomic      Atomic             Coordinates (Angstroms)
 Number     Number       Type             X           Y           Z
 ---------------------------------------------------------------------
      1          8           0       -1.327271    0.708312   -0.048033
      2          1           0       -1.807271    0.708312   -0.879417
      3          8           0        0.329258    0.708312   -0.155885
      4          1           0        0.649258    1.613409   -0.155885
      5         53           0       -2.255742    0.708312    1.723391
 ---------------------------------------------------------------------
                    Distance matrix (angstroms):
                    1          2          3          4          5
     1  O    0.000000
     2  H    0.960000   0.000000
     3  O    1.660036   2.255716   0.000000
     4  H    2.176580   2.716107   0.960000   0.000000
     5  I    2.000000   2.641162   3.195919   3.576297   0.000000
 Stoichiometry    H2IO2(2)
 Framework group  C1[X(H2IO2)]
 Deg. of freedom     9
 Full point group                 C1      NOp   1
 Largest Abelian subgroup         C1      NOp   1
 Largest concise Abelian subgroup C1      NOp   1
                         Standard orientation:                         
 ---------------------------------------------------------------------
 Center     Atomic      Atomic             Coordinates (Angstroms)
 Number     Number       Type             X           Y           Z
 ---------------------------------------------------------------------
      1          8           0        1.234152    0.628192    0.007251
      2          1           0        1.443167    1.562314    0.080253
      3          8           0        2.526434   -0.406700   -0.114098
      4          1           0        2.785925   -0.697752    0.763144
      5         53           0       -0.647430   -0.049745    0.000215
 ---------------------------------------------------------------------
 Rotational constants (GHZ):     38.9676861      2.6825270      2.5287384
 Standard basis: LANL2DZ (5D, 7F)
 There are    30 symmetry adapted basis functions of A   symmetry.
 Integral buffers will be    262144 words long.
 Raffenetti 2 integral format.
 Two-electron integral symmetry is turned on.
    30 basis functions,    70 primitive gaussians,    30 cartesian basis functions
    13 alpha electrons       12 beta electrons
       nuclear repulsion energy        59.7654203167 Hartrees.
 NAtoms=    5 NActive=    5 NUniq=    5 SFac= 7.50D-01 NAtFMM=   80 NAOKFM=F Big=F
 ------------------------------------------------------------------------------
 Polarizable Continuum Model (PCM)
 =================================
 Model                : PCM.
 Atomic radii         : SMD-Coulomb.
 Polarization charges : Total charges.
 Charge compensation  : None.
 Solution method      : Matrix inversion.
 Cavity type          : VdW (van der Waals Surface) (Alpha=1.000).
 Cavity algorithm     : GePol (No added spheres)
                        Default sphere list used, NSphG=    5.
                        Lebedev-Laikov grids with approx.  5.0 points / Ang**2.
                        Smoothing algorithm: Karplus/York (Gamma=1.0000).
                        Polarization charges: spherical gaussians, with
                                              point-specific exponents (IZeta= 3).
                        Self-potential: point-specific (ISelfS= 7).
                        Self-field    : sphere-specific E.n sum rule (ISelfD= 2).
 1st derivatives      : Analytical E(r).r(x)/FMM algorithm (CHGder, D1EAlg=3).
                        Cavity 1st derivative terms included.
 2nd derivatives      : Analytical E(r).r(xy)/FMM algorithm (CHGder, D2EAlg=3).
                        Cavity 2nd derivative terms included.
 Solvent              : Water, Eps=  78.355300 Eps(inf)=   1.777849
 ------------------------------------------------------------------------------
 Spheres list:
 ISph  on   Nord    Re0     Alpha      Xe            Ye            Ze
    1   O      1    1.520   1.000      1.234152      0.628192      0.007251
    2   H      2    1.200   1.000      1.443167      1.562314      0.080253
    3   O      3    1.520   1.000      2.526434     -0.406700     -0.114098
    4   H      4    1.200   1.000      2.785925     -0.697752      0.763144
    5   I      5    1.980   1.000     -0.647430     -0.049745      0.000215
 ------------------------------------------------------------------------------
 ------------------------------------------------------------------------------
 Atomic radii for non-electrostatic terms: SMD-CDS.
 ------------------------------------------------------------------------------
 Nuclear repulsion after PCM non-electrostatic terms =       59.7676824847 Hartrees.
 One-electron integrals computed using PRISM.
   1 Symmetry operations used in ECPInt.
 ECPInt:  NShTT=     171 NPrTT=    1054 LenC2=     172 LenP2D=     950.
 LDataN:  DoStor=T MaxTD1= 4 Len=   56
 NBasis=    30 RedAO= T  NBF=    30
 NBsUse=    30 1.00D-06 NBFU=    30
 Defaulting to unpruned grid for atomic number  53.
 Harris functional with IExCor= 1009 diagonalized for initial guess.
 ExpMin= 1.05D-01 ExpMax= 7.82D+03 ExpMxC= 2.73D+02 IAcc=1 IRadAn=         1 AccDes= 0.00D+00
 HarFok:  IExCor= 1009 AccDes= 0.00D+00 IRadAn=         1 IDoV= 1
 ScaDFX=  1.000000  1.000000  1.000000  1.000000
 Defaulting to unpruned grid for atomic number  53.
 Defaulting to unpruned grid for atomic number  53.
 Defaulting to unpruned grid for atomic number  53.
 Defaulting to unpruned grid for atomic number  53.
 FoFCou: FMM=F IPFlag=           0 FMFlag=      100000 FMFlg1=           0
         NFxFlg=           0 DoJE=T BraDBF=F KetDBF=T FulRan=T
         Omega=  0.000000  0.000000  1.000000  0.000000  0.000000 ICntrl=     500 IOpCl=  0
         NMat0=    1 NMatS0=    1 NMatT0=    0 NMatD0=    1 NMtDS0=    0 NMtDT0=    0
         I1Cent=           4 NGrid=           0.
 Petite list used in FoFCou.
 Initial guess orbital symmetries:
 Alpha Orbitals:
       Occupied  (A) (A) (A) (A) (A) (A) (A) (A) (A) (A) (A) (A)
                 (A)
       Virtual   (A) (A) (A) (A) (A) (A) (A) (A) (A) (A) (A) (A)
                 (A) (A) (A) (A) (A)
 Beta  Orbitals:
       Occupied  (A) (A) (A) (A) (A) (A) (A) (A) (A) (A) (A) (A)
       Virtual   (A) (A) (A) (A) (A) (A) (A) (A) (A) (A) (A) (A)
                 (A) (A) (A) (A) (A) (A)
 The electronic state of the initial guess is 2-A.
 Initial guess <Sx>= 0.0000 <Sy>= 0.0000 <Sz>= 0.5000 <S**2>= 0.7500 S= 0.5000
 Requested convergence on RMS density matrix=1.00D-08 within 128 cycles.
 Requested convergence on MAX density matrix=1.00D-06.
 Requested convergence on             energy=1.00D-06.
 No special actions if energy rises.
 Keep R1 and R2 ints in memory in canonical form, NReq=3518541.
 Defaulting to unpruned grid for atomic number  53.
 Defaulting to unpruned grid for atomic number  53.
 Defaulting to unpruned grid for atomic number  53.
 Defaulting to unpruned grid for atomic number  53.
 Error on total polarization charges =  0.06233
 SCF Done:  E(UM062X) =  -162.764034818     A.U. after   18 cycles
             Convg  =    0.3915D-08             -V/T =  2.0554
 <Sx>= 0.0000 <Sy>= 0.0000 <Sz>= 0.5000 <S**2>= 0.7713 S= 0.5106
 <L.S>= 0.000000000000E+00
 SMD-CDS (non-electrostatic) energy             (kcal/mol) =       1.42
 (included in total energy above)
 Annihilation of the first spin contaminant:
 S**2 before annihilation     0.7713,   after     0.7501
 Range of M.O.s used for correlation:     1    30
 NBasis=    30 NAE=    13 NBE=    12 NFC=     0 NFV=     0
 NROrb=     30 NOA=    13 NOB=    12 NVA=    17 NVB=    18
   1 Symmetry operations used in ECPInt.
 ECPInt:  NShTT=     171 NPrTT=    1054 LenC2=     172 LenP2D=     950.
 LDataN:  DoStor=T MaxTD1= 5 Len=  102
 Symmetrizing basis deriv contribution to polar:
 IMax=3 JMax=2 DiffMx= 0.00D+00
 G2DrvN: will do     6 centers at a time, making    1 passes doing MaxLOS=1.
 Calling FoFCou, ICntrl=  3107 FMM=F I1Cent=   0 AccDes= 0.00D+00.
 Defaulting to unpruned grid for atomic number  53.
 Defaulting to unpruned grid for atomic number  53.
 Defaulting to unpruned grid for atomic number  53.
 Defaulting to unpruned grid for atomic number  53.
 FoFDir/FoFCou used for L=0 through L=1.
 G2PCM: DoFxE=T DoFxN=T DoGrad=T DoPD/DQ/DG=FFF NFrqRd=   0 IEInf=0 DoCFld=F IF1Alg=4.
 End of G2Drv Frequency-dependent properties file   721 does not exist.
 End of G2Drv Frequency-dependent properties file   722 does not exist.
          IDoAtm=11111
 NEqPCM:  Using equilibrium solvation (IEInf=0, Eps=  78.3553, EpsInf=   1.7778)
          Differentiating once with respect to nuclear coordinates.
 Defaulting to unpruned grid for atomic number  53.
          Keep R1 and R2 ints in memory in canonical form, NReq=1017735.
 Defaulting to unpruned grid for atomic number  53.
 Defaulting to unpruned grid for atomic number  53.
 Defaulting to unpruned grid for atomic number  53.
 Defaulting to unpruned grid for atomic number  53.
          There are    18 degrees of freedom in the 1st order CPHF.  IDoFFX=5.
     12 vectors produced by pass  0 Test12= 2.43D-11 5.56D-07 XBig12= 3.07D-01 4.23D-01.
 AX will form    12 AO Fock derivatives at one time.
     12 vectors produced by pass  1 Test12= 2.43D-11 5.56D-07 XBig12= 3.64D-02 4.61D-02.
     12 vectors produced by pass  2 Test12= 2.43D-11 5.56D-07 XBig12= 2.80D-03 1.84D-02.
     12 vectors produced by pass  3 Test12= 2.43D-11 5.56D-07 XBig12= 3.64D-05 1.58D-03.
     12 vectors produced by pass  4 Test12= 2.43D-11 5.56D-07 XBig12= 3.81D-07 1.17D-04.
      6 vectors produced by pass  5 Test12= 2.43D-11 5.56D-07 XBig12= 3.18D-09 1.20D-05.
      2 vectors produced by pass  6 Test12= 2.43D-11 5.56D-07 XBig12= 2.87D-11 1.13D-06.
 Inverted reduced A of dimension    68 with in-core refinement.
 End of Minotr Frequency-dependent properties file   721 does not exist.
 End of Minotr Frequency-dependent properties file   722 does not exist.

 **********************************************************************

            Population analysis using the SCF density.

 **********************************************************************

 Orbital symmetries:
 Alpha Orbitals:
       Occupied  (A) (A) (A) (A) (A) (A) (A) (A) (A) (A) (A) (A)
                 (A)
       Virtual   (A) (A) (A) (A) (A) (A) (A) (A) (A) (A) (A) (A)
                 (A) (A) (A) (A) (A)
 Beta  Orbitals:
       Occupied  (A) (A) (A) (A) (A) (A) (A) (A) (A) (A) (A) (A)
       Virtual   (A) (A) (A) (A) (A) (A) (A) (A) (A) (A) (A) (A)
                 (A) (A) (A) (A) (A) (A)
 The electronic state is 2-A.
 Alpha  occ. eigenvalues --  -19.70351 -19.64257  -1.19951  -1.07496  -0.76006
 Alpha  occ. eigenvalues --   -0.62937  -0.55165  -0.50448  -0.43679  -0.38691
 Alpha  occ. eigenvalues --   -0.32450  -0.30387  -0.26499
 Alpha virt. eigenvalues --   -0.03856   0.17266   0.19877   0.41892   0.42334
 Alpha virt. eigenvalues --    0.42754   0.65689   0.68683   0.69700   0.81677
 Alpha virt. eigenvalues --    0.84591   0.94021   1.00024   1.05646   1.41186
 Alpha virt. eigenvalues --    1.65804   9.31453
  Beta  occ. eigenvalues --  -19.69639 -19.63072  -1.17842  -1.03700  -0.75632
  Beta  occ. eigenvalues --   -0.58762  -0.53424  -0.47779  -0.41570  -0.35999
  Beta  occ. eigenvalues --   -0.31117  -0.29994
  Beta virt. eigenvalues --   -0.06647   0.03246   0.17078   0.20318   0.41648
  Beta virt. eigenvalues --    0.42276   0.42838   0.67050   0.70442   0.70819
  Beta virt. eigenvalues --    0.82505   0.87329   0.94529   1.00165   1.06074
  Beta virt. eigenvalues --    1.43077   1.67323   9.31081
          Condensed to atoms (all electrons):
              1          2          3          4          5
     1  O    8.761899   0.252045  -0.239865  -0.006234  -0.085472
     2  H    0.252045   0.262530   0.000167  -0.000543  -0.005680
     3  O   -0.239865   0.000167   8.516135   0.256144   0.031998
     4  H   -0.006234  -0.000543   0.256144   0.344854  -0.002369
     5  I   -0.085472  -0.005680   0.031998  -0.002369   6.714198
 Mulliken atomic charges:
              1
     1  O   -0.682374
     2  H    0.491480
     3  O   -0.564580
     4  H    0.408148
     5  I    0.347325
 Sum of Mulliken atomic charges =   0.00000
 Mulliken charges with hydrogens summed into heavy atoms:
              1
     1  O   -0.190893
     3  O   -0.156432
     5  I    0.347325
 Sum of Mulliken charges with hydrogens summed into heavy atoms =   0.00000
          Atomic-Atomic Spin Densities.
              1          2          3          4          5
     1  O    0.486821  -0.015232  -0.315839   0.013934  -0.097146
     2  H   -0.015232   0.016969   0.011000  -0.000323   0.011078
     3  O   -0.315839   0.011000   0.910751  -0.014925   0.049829
     4  H    0.013934  -0.000323  -0.014925  -0.009045  -0.002752
     5  I   -0.097146   0.011078   0.049829  -0.002752   0.315254
 Mulliken atomic spin densities:
              1
     1  O    0.072538
     2  H    0.023493
     3  O    0.640817
     4  H   -0.013111
     5  I    0.276263
 Sum of Mulliken atomic spin densities =   1.00000
 APT atomic charges:
              1
     1  O   -0.651937
     2  H    0.786058
     3  O   -1.129290
     4  H    0.670755
     5  I    0.324413
 Sum of APT charges=   0.00000
 APT Atomic charges with hydrogens summed into heavy atoms:
              1
     1  O    0.134121
     2  H    0.000000
     3  O   -0.458535
     4  H    0.000000
     5  I    0.324413
 Sum of APT charges=   0.00000
 Electronic spatial extent (au):  <R**2>=            369.4656
 Charge=              0.0000 electrons
 Dipole moment (field-independent basis, Debye):
    X=             -1.6962    Y=              2.1478    Z=              2.5080  Tot=              3.7122
 Quadrupole moment (field-independent basis, Debye-Ang):
   XX=            -32.8871   YY=            -27.4057   ZZ=            -32.4859
   XY=              4.1105   XZ=              6.7145   YZ=             -1.1997
 Traceless Quadrupole moment (field-independent basis, Debye-Ang):
   XX=             -1.9609   YY=              3.5205   ZZ=             -1.5597
   XY=              4.1105   XZ=              6.7145   YZ=             -1.1997
 Octapole moment (field-independent basis, Debye-Ang**2):
  XXX=            -44.6207  YYY=              7.7081  ZZZ=              2.1139  XYY=             -2.4120
  XXY=             -0.9197  XXZ=             18.3412  XZZ=             -7.1967  YZZ=             -1.1889
  YYZ=              1.9464  XYZ=             -3.7433
 Hexadecapole moment (field-independent basis, Debye-Ang**3):
 XXXX=           -396.7174 YYYY=            -56.1269 ZZZZ=            -48.8394 XXXY=              3.3115
 XXXZ=             52.3701 YYYX=             17.5307 YYYZ=             -0.4821 ZZZX=              5.8750
 ZZZY=             -1.2858 XXYY=            -61.5714 XXZZ=            -66.3215 YYZZ=            -19.7205
 XXYZ=            -10.7906 YYXZ=              4.6191 ZZXY=             -0.5907
 N-N= 5.976768248475D+01 E-N=-7.439025534771D+02  KE= 2.299046261689D+02
  Exact polarizability:   0.000   0.000   0.000   0.000   0.000   0.000
 Approx polarizability:  64.487   4.294  15.045   0.053  -0.360   7.068
                          Isotropic Fermi Contact Couplings
        Atom                 a.u.       MegaHertz       Gauss      10(-4) cm-1
     1  O(17)              1.10585    -670.36383    -239.20248    -223.60931
     2  H(1)               0.01304      58.28145      20.79627      19.44060
     3  O(17)              0.31903    -193.39768     -69.00910     -64.51052
     4  H(1)              -0.00725     -32.39825     -11.56050     -10.80689
     5  I(127)             0.00000      -0.00109      -0.00039      -0.00036
 --------------------------------------------------------
       Center         ----  Spin Dipole Couplings  ----
                      3XX-RR        3YY-RR        3ZZ-RR
 --------------------------------------------------------
     1   Atom       -0.496503      0.564013     -0.067510
     2   Atom       -0.006755      0.022042     -0.015287
     3   Atom        1.061586     -0.066242     -0.995344
     4   Atom       -0.038106     -0.053191      0.091297
     5   Atom        0.044924     -0.023992     -0.020932
 --------------------------------------------------------
                        XY            XZ            YZ
 --------------------------------------------------------
     1   Atom       -0.174678      0.056027     -0.028083
     2   Atom       -0.006355      0.000169      0.002522
     3   Atom       -1.611302     -0.693341      0.502997
     4   Atom       -0.038528      0.035897     -0.045817
     5   Atom        0.004677     -0.000289     -0.000134
 --------------------------------------------------------


 ---------------------------------------------------------------------------------
              Anisotropic Spin Dipole Couplings in Principal Axis System
 ---------------------------------------------------------------------------------

       Atom             a.u.   MegaHertz   Gauss  10(-4) cm-1        Axes

              Baa    -0.5301    38.361    13.688    12.796  0.9820  0.1540 -0.1096
     1 O(17)  Bbb    -0.0639     4.626     1.651     1.543  0.0994  0.0720  0.9924
              Bcc     0.5941   -42.987   -15.339   -14.339 -0.1607  0.9854 -0.0554
 
              Baa    -0.0155    -8.272    -2.951    -2.759 -0.0772 -0.0798  0.9938
     2 H(1)   Bbb    -0.0080    -4.285    -1.529    -1.429  0.9758  0.1985  0.0918
              Bcc     0.0235    12.557     4.481     4.189 -0.2046  0.9768  0.0626
 
              Baa    -1.2186    88.176    31.463    29.412 -0.2579 -0.6661  0.6998
     3 O(17)  Bbb    -1.2011    86.907    31.011    28.989  0.5552  0.4906  0.6716
              Bcc     2.4196  -175.083   -62.474   -58.401  0.7907 -0.5618 -0.2433
 
              Baa    -0.0861   -45.918   -16.385   -15.317  0.5813  0.8085  0.0912
     4 H(1)   Bbb    -0.0320   -17.060    -6.087    -5.690  0.7623 -0.5020 -0.4086
              Bcc     0.1180    62.978    22.472    21.007  0.2846 -0.3070  0.9082
 
              Baa    -0.0243    -2.613    -0.932    -0.872 -0.0672  0.9972  0.0337
     5 I(127) Bbb    -0.0209    -2.250    -0.803    -0.750  0.0068 -0.0334  0.9994
              Bcc     0.0452     4.863     1.735     1.622  0.9977  0.0674 -0.0045
 

 ---------------------------------------------------------------------------------

   1 Symmetry operations used in ECPInt.
 ECPInt:  NShTT=     171 NPrTT=    1054 LenC2=     172 LenP2D=    1041.
 LDataN:  DoStor=T MaxTD1= 6 Len=  172
 D2PCM: PCM CHGder 2nd derivatives, FixD1E=F FixD2E=F DoIter=F DoCFld=F I1PDM=0
 Calling FoFJK, ICntrl=    100147 FMM=F ISym2X=0 I1Cent= 0 IOpClX= 1 NMat=1 NMatS=1 NMatT=0.
 Defaulting to unpruned grid for atomic number  53.
 Defaulting to unpruned grid for atomic number  53.
 Defaulting to unpruned grid for atomic number  53.
 Defaulting to unpruned grid for atomic number  53.
 ***** Axes restored to original set *****
 -------------------------------------------------------------------
 Center     Atomic                   Forces (Hartrees/Bohr)
 Number     Number              X              Y              Z
 -------------------------------------------------------------------
      1        8          -0.028082980    0.005261974    0.012025474
      2        1          -0.018375107    0.000792032   -0.024620958
      3        8           0.069909451   -0.037559685   -0.013528248
      4        1          -0.001023802    0.031310821    0.000560852
      5       53          -0.022427563    0.000194857    0.025562880
 -------------------------------------------------------------------
 Cartesian Forces:  Max     0.069909451 RMS     0.026488635

 GradGradGradGradGradGradGradGradGradGradGradGradGradGradGradGradGradGrad
 Berny optimization.
 Internal  Forces:  Max     0.069618706 RMS     0.029495697
 Search for a saddle point.
 Step number   1 out of a maximum of   20
 All quantities printed in internal units (Hartrees-Bohrs-Radians)
 Swaping is turned off.
 Second derivative matrix not updated -- analytic derivatives used.
 The second derivative matrix:
                          R1        R2        R3        R4        A1
           R1           0.57499
           R2           0.03304  -0.01382
           R3          -0.02135   0.16253   0.13152
           R4           0.00031  -0.00564  -0.00051   0.58583
           A1          -0.00911  -0.04965   0.02071  -0.00126   0.02887
           A2           0.00603   0.00691   0.00965   0.00142  -0.02624
           A3           0.00308   0.04274  -0.03036  -0.00017  -0.00263
           A4           0.00089  -0.00072   0.01277  -0.01040  -0.00140
           D1           0.00062  -0.00054   0.00137   0.00165   0.00371
           D2          -0.00072  -0.00120   0.00028   0.00061   0.00062
                          A2        A3        A4        D1        D2
           A2           0.05237
           A3          -0.02612   0.02876
           A4          -0.00050   0.00190   0.08993
           D1          -0.00245  -0.00127   0.00584  -0.00099
           D2           0.00097  -0.00159  -0.00072   0.00628  -0.00349
     Eigenvalues ---   -0.15160  -0.00894   0.00366   0.06113   0.07701
     Eigenvalues ---    0.08994   0.23901   0.57763   0.586121000.00000
 Eigenvectors required to have negative eigenvalues:
                          R2        R3        A1        A3        R1
   1                    0.77877  -0.49974   0.26564  -0.26454  -0.04568
                          A4        R4        D2        D1        A2
   1                    0.03291   0.00649   0.00338  -0.00276  -0.00111
 RFO step:  Lambda0=5.437664975D-03 Lambda=-3.55021875D-02.
 Linear search not attempted -- option 19 set.
 Maximum step size (   0.030) exceeded in Quadratic search.
    -- Step size scaled by   0.058
 Iteration  1 RMS(Cart)=  0.01407731 RMS(Int)=  0.00008911
 Iteration  2 RMS(Cart)=  0.00008568 RMS(Int)=  0.00000328
 Iteration  3 RMS(Cart)=  0.00000000 RMS(Int)=  0.00000328
 Variable       Old X    -DE/DX   Delta X   Delta X   Delta X     New X
                                 (Linear)    (Quad)   (Total)
    R1        1.81414   0.03054   0.00000   0.00300   0.00300   1.81714
    R2        3.13701   0.06962   0.00000   0.00536   0.00536   3.14237
    R3        3.77945   0.03300   0.00000   0.01395   0.01395   3.79340
    R4        1.81414   0.02920   0.00000   0.00260   0.00260   1.81674
    A1        2.02938  -0.00628   0.00000  -0.01017  -0.01018   2.01920
    A2        2.13522  -0.01250   0.00000  -0.00822  -0.00823   2.12699
    A3        2.11858   0.01878   0.00000   0.01840   0.01839   2.13697
    A4        1.90989  -0.02070   0.00000  -0.01122  -0.01122   1.89867
    D1        1.59376  -0.00112   0.00000  -0.00153  -0.00153   1.59224
    D2       -1.54783   0.00099   0.00000   0.00481   0.00481  -1.54302
         Item               Value     Threshold  Converged?
 Maximum Force            0.069619     0.000450     NO 
 RMS     Force            0.029496     0.000300     NO 
 Maximum Displacement     0.028850     0.001800     NO 
 RMS     Displacement     0.014086     0.001200     NO 
 Predicted change in Energy=-1.714328D-03
 GradGradGradGradGradGradGradGradGradGradGradGradGradGradGradGradGradGrad

                          Input orientation:                          
 ---------------------------------------------------------------------
 Center     Atomic      Atomic             Coordinates (Angstroms)
 Number     Number       Type             X           Y           Z
 ---------------------------------------------------------------------
      1          8           0       -1.322221    0.706541   -0.041676
      2          1           0       -1.801918    0.712360   -0.875048
      3          8           0        0.336113    0.705555   -0.164420
      4          1           0        0.647267    1.615183   -0.162018
      5         53           0       -2.271009    0.707018    1.727332
 ---------------------------------------------------------------------
                    Distance matrix (angstroms):
                    1          2          3          4          5
     1  O    0.000000
     2  H    0.961589   0.000000
     3  O    1.662871   2.253045   0.000000
     4  H    2.172326   2.705922   0.961378   0.000000
     5  I    2.007383   2.644326   3.221150   3.593152   0.000000
 Stoichiometry    H2IO2(2)
 Framework group  C1[X(H2IO2)]
 Deg. of freedom     9
 Full point group                 C1      NOp   1
 Largest Abelian subgroup         C1      NOp   1
 Largest concise Abelian subgroup C1      NOp   1
                         Standard orientation:                         
 ---------------------------------------------------------------------
 Center     Atomic      Atomic             Coordinates (Angstroms)
 Number     Number       Type             X           Y           Z
 ---------------------------------------------------------------------
      1          8           0        1.240692    0.619485    0.006138
      2          1           0        1.448287    1.555109    0.084658
      3          8           0        2.547812   -0.401346   -0.114193
      4          1           0        2.799594   -0.687298    0.768464
      5         53           0       -0.651998   -0.049300    0.000214
 ---------------------------------------------------------------------
 Rotational constants (GHZ):     39.8182445      2.6429228      2.4971490
 Standard basis: LANL2DZ (5D, 7F)
 There are    30 symmetry adapted basis functions of A   symmetry.
 Integral buffers will be    262144 words long.
 Raffenetti 2 integral format.
 Two-electron integral symmetry is turned on.
    30 basis functions,    70 primitive gaussians,    30 cartesian basis functions
    13 alpha electrons       12 beta electrons
       nuclear repulsion energy        59.5901447196 Hartrees.
 NAtoms=    5 NActive=    5 NUniq=    5 SFac= 7.50D-01 NAtFMM=   80 NAOKFM=F Big=F
 ------------------------------------------------------------------------------
 Polarizable Continuum Model (PCM)
 =================================
 Model                : PCM.
 Atomic radii         : SMD-Coulomb.
 Polarization charges : Total charges.
 Charge compensation  : None.
 Solution method      : Matrix inversion.
 Cavity type          : VdW (van der Waals Surface) (Alpha=1.000).
 Cavity algorithm     : GePol (No added spheres)
                        Default sphere list used, NSphG=    5.
                        Lebedev-Laikov grids with approx.  5.0 points / Ang**2.
                        Smoothing algorithm: Karplus/York (Gamma=1.0000).
                        Polarization charges: spherical gaussians, with
                                              point-specific exponents (IZeta= 3).
                        Self-potential: point-specific (ISelfS= 7).
                        Self-field    : sphere-specific E.n sum rule (ISelfD= 2).
 1st derivatives      : Analytical E(r).r(x)/FMM algorithm (CHGder, D1EAlg=3).
                        Cavity 1st derivative terms included.
 Solvent              : Water, Eps=  78.355300 Eps(inf)=   1.777849
 ------------------------------------------------------------------------------
 Spheres list:
 ISph  on   Nord    Re0     Alpha      Xe            Ye            Ze
    1   O      1    1.520   1.000      1.240692      0.619485      0.006138
    2   H      2    1.200   1.000      1.448287      1.555109      0.084658
    3   O      3    1.520   1.000      2.547812     -0.401346     -0.114193
    4   H      4    1.200   1.000      2.799594     -0.687298      0.768464
    5   I      5    1.980   1.000     -0.651998     -0.049300      0.000214
 ------------------------------------------------------------------------------
 ------------------------------------------------------------------------------
 Atomic radii for non-electrostatic terms: SMD-CDS.
 ------------------------------------------------------------------------------
 Nuclear repulsion after PCM non-electrostatic terms =       59.5924058123 Hartrees.
 One-electron integrals computed using PRISM.
   1 Symmetry operations used in ECPInt.
 ECPInt:  NShTT=     171 NPrTT=    1054 LenC2=     172 LenP2D=     951.
 LDataN:  DoStor=T MaxTD1= 4 Len=   56
 NBasis=    30 RedAO= T  NBF=    30
 NBsUse=    30 1.00D-06 NBFU=    30
 Defaulting to unpruned grid for atomic number  53.
 Initial guess read from the read-write file.
 B after Tr=     0.000000    0.000000    0.000000
         Rot=    1.000000    0.000000    0.000000    0.000000 Ang=   0.00 deg.
 Initial guess orbital symmetries:
 Alpha Orbitals:
       Occupied  (A) (A) (A) (A) (A) (A) (A) (A) (A) (A) (A) (A)
                 (A)
       Virtual   (A) (A) (A) (A) (A) (A) (A) (A) (A) (A) (A) (A)
                 (A) (A) (A) (A) (A)
 Beta  Orbitals:
       Occupied  (A) (A) (A) (A) (A) (A) (A) (A) (A) (A) (A) (A)
       Virtual   (A) (A) (A) (A) (A) (A) (A) (A) (A) (A) (A) (A)
                 (A) (A) (A) (A) (A) (A)
 Initial guess <Sx>= 0.0000 <Sy>= 0.0000 <Sz>= 0.5000 <S**2>= 0.7713 S= 0.5106
 Harris functional with IExCor= 1009 diagonalized for initial guess.
 ExpMin= 1.05D-01 ExpMax= 7.82D+03 ExpMxC= 2.73D+02 IAcc=1 IRadAn=         1 AccDes= 0.00D+00
 HarFok:  IExCor= 1009 AccDes= 0.00D+00 IRadAn=         1 IDoV= 1
 ScaDFX=  1.000000  1.000000  1.000000  1.000000
 Defaulting to unpruned grid for atomic number  53.
 Defaulting to unpruned grid for atomic number  53.
 Defaulting to unpruned grid for atomic number  53.
 Defaulting to unpruned grid for atomic number  53.
 FoFCou: FMM=F IPFlag=           0 FMFlag=      100000 FMFlg1=           0
         NFxFlg=           0 DoJE=T BraDBF=F KetDBF=T FulRan=T
         Omega=  0.000000  0.000000  1.000000  0.000000  0.000000 ICntrl=     500 IOpCl=  0
         NMat0=    1 NMatS0=    1 NMatT0=    0 NMatD0=    1 NMtDS0=    0 NMtDT0=    0
         I1Cent=           4 NGrid=           0.
 Petite list used in FoFCou.
 Requested convergence on RMS density matrix=1.00D-08 within 128 cycles.
 Requested convergence on MAX density matrix=1.00D-06.
 Requested convergence on             energy=1.00D-06.
 No special actions if energy rises.
 Keep R1 and R2 ints in memory in canonical form, NReq=3516028.
 Defaulting to unpruned grid for atomic number  53.
 Defaulting to unpruned grid for atomic number  53.
 Defaulting to unpruned grid for atomic number  53.
 Defaulting to unpruned grid for atomic number  53.
 Error on total polarization charges =  0.06247
 SCF Done:  E(UM062X) =  -162.765757705     A.U. after   14 cycles
             Convg  =    0.5104D-08             -V/T =  2.0556
 <Sx>= 0.0000 <Sy>= 0.0000 <Sz>= 0.5000 <S**2>= 0.7724 S= 0.5111
 <L.S>= 0.000000000000E+00
 SMD-CDS (non-electrostatic) energy             (kcal/mol) =       1.42
 (included in total energy above)
 Annihilation of the first spin contaminant:
 S**2 before annihilation     0.7724,   after     0.7501
   1 Symmetry operations used in ECPInt.
 ECPInt:  NShTT=     171 NPrTT=    1054 LenC2=     172 LenP2D=     951.
 LDataN:  DoStor=T MaxTD1= 5 Len=  102
 D1PCM: PCM CHGder 1st derivatives, ID1Alg=3 FixD1E=F DoIter=F DoCFld=F I1PDM=0.
 Calling FoFJK, ICntrl=      2127 FMM=F ISym2X=0 I1Cent= 0 IOpClX= 1 NMat=1 NMatS=1 NMatT=0.
 Defaulting to unpruned grid for atomic number  53.
 Defaulting to unpruned grid for atomic number  53.
 Defaulting to unpruned grid for atomic number  53.
 Defaulting to unpruned grid for atomic number  53.
 ***** Axes restored to original set *****
 -------------------------------------------------------------------
 Center     Atomic                   Forces (Hartrees/Bohr)
 Number     Number              X              Y              Z
 -------------------------------------------------------------------
      1        8          -0.026305567    0.004780071    0.012359065
      2        1          -0.017314933    0.000955798   -0.023289294
      3        8           0.066687978   -0.035630870   -0.013925033
      4        1          -0.001405322    0.029641271    0.000803184
      5       53          -0.021662155    0.000253730    0.024052078
 -------------------------------------------------------------------
 Cartesian Forces:  Max     0.066687978 RMS     0.025232892

 GradGradGradGradGradGradGradGradGradGradGradGradGradGradGradGradGradGrad
 Berny optimization.
 Internal  Forces:  Max     0.066109577 RMS     0.028043131
 Search for a saddle point.
 Step number   2 out of a maximum of   20
 All quantities printed in internal units (Hartrees-Bohrs-Radians)
 Swaping is turned off.
 Update second derivatives using D2CorX and points    1    2
 The second derivative matrix:
                          R1        R2        R3        R4        A1
           R1           0.57496
           R2           0.03301  -0.01385
           R3          -0.02151   0.16233   0.13064
           R4           0.00024  -0.00573  -0.00089   0.58568
           A1          -0.00896  -0.04945   0.02157  -0.00090   0.02805
           A2           0.00600   0.00686   0.00953   0.00141  -0.02617
           A3           0.00300   0.04266  -0.03085  -0.00042  -0.00212
           A4           0.00090  -0.00072   0.01290  -0.01031  -0.00156
           D1           0.00057  -0.00061   0.00112   0.00157   0.00393
           D2          -0.00078  -0.00128  -0.00006   0.00046   0.00095
                          A2        A3        A4        D1        D2
           A2           0.05248
           A3          -0.02633   0.02864
           A4          -0.00037   0.00185   0.09002
           D1          -0.00241  -0.00147   0.00594  -0.00102
           D2           0.00093  -0.00178  -0.00066   0.00619  -0.00362
     Eigenvalues ---   -0.15208  -0.00893   0.00343   0.06061   0.07729
     Eigenvalues ---    0.08998   0.23812   0.57760   0.585981000.00000
 Eigenvectors required to have negative eigenvalues:
                          R2        R3        A1        A3        R1
   1                    0.77708  -0.50052   0.26765  -0.26595  -0.04572
                          A4        R4        D1        A2        D2
   1                    0.03327   0.00611  -0.00398  -0.00174   0.00167
 RFO step:  Lambda0=4.775542489D-03 Lambda=-3.31667582D-02.
 Linear search not attempted -- option 19 set.
 Maximum step size (   0.030) exceeded in Quadratic search.
    -- Step size scaled by   0.059
 Iteration  1 RMS(Cart)=  0.01399413 RMS(Int)=  0.00009075
 Iteration  2 RMS(Cart)=  0.00008566 RMS(Int)=  0.00000318
 Iteration  3 RMS(Cart)=  0.00000000 RMS(Int)=  0.00000318
 Variable       Old X    -DE/DX   Delta X   Delta X   Delta X     New X
                                 (Linear)    (Quad)   (Total)
    R1        1.81714   0.02885   0.00000   0.00287   0.00287   1.82000
    R2        3.14237   0.06611   0.00000   0.00581   0.00581   3.14818
    R3        3.79340   0.03139   0.00000   0.01342   0.01342   3.80683
    R4        1.81674   0.02761   0.00000   0.00254   0.00254   1.81928
    A1        2.01920  -0.00620   0.00000  -0.01038  -0.01038   2.00882
    A2        2.12699  -0.01205   0.00000  -0.00814  -0.00815   2.11885
    A3        2.13697   0.01824   0.00000   0.01848   0.01848   2.15545
    A4        1.89867  -0.01988   0.00000  -0.01121  -0.01121   1.88746
    D1        1.59224  -0.00105   0.00000  -0.00094  -0.00094   1.59130
    D2       -1.54302   0.00106   0.00000   0.00542   0.00542  -1.53760
         Item               Value     Threshold  Converged?
 Maximum Force            0.066110     0.000450     NO 
 RMS     Force            0.028043     0.000300     NO 
 Maximum Displacement     0.028515     0.001800     NO 
 RMS     Displacement     0.014001     0.001200     NO 
 Predicted change in Energy=-1.650032D-03
 GradGradGradGradGradGradGradGradGradGradGradGradGradGradGradGradGradGrad

                          Input orientation:                          
 ---------------------------------------------------------------------
 Center     Atomic      Atomic             Coordinates (Angstroms)
 Number     Number       Type             X           Y           Z
 ---------------------------------------------------------------------
      1          8           0       -1.317267    0.704725   -0.035232
      2          1           0       -1.796594    0.716307   -0.870506
      3          8           0        0.342951    0.702882   -0.173238
      4          1           0        0.645239    1.616901   -0.167836
      5         53           0       -2.286098    0.705842    1.730983
 ---------------------------------------------------------------------
                    Distance matrix (angstroms):
                    1          2          3          4          5
     1  O    0.000000
     2  H    0.963105   0.000000
     3  O    1.665945   2.250337   0.000000
     4  H    2.168196   2.695804   0.962724   0.000000
     5  I    2.014486   2.647163   3.246224   3.609471   0.000000
 Stoichiometry    H2IO2(2)
 Framework group  C1[X(H2IO2)]
 Deg. of freedom     9
 Full point group                 C1      NOp   1
 Largest Abelian subgroup         C1      NOp   1
 Largest concise Abelian subgroup C1      NOp   1
                         Standard orientation:                         
 ---------------------------------------------------------------------
 Center     Atomic      Atomic             Coordinates (Angstroms)
 Number     Number       Type             X           Y           Z
 ---------------------------------------------------------------------
      1          8           0        1.246960    0.610682    0.005043
      2          1           0        1.453155    1.547686    0.089173
      3          8           0        2.569098   -0.395842   -0.114266
      4          1           0        2.812682   -0.677315    0.773584
      5         53           0       -0.656496   -0.048851    0.000208
 ---------------------------------------------------------------------
 Rotational constants (GHZ):     40.7081039      2.6046350      2.4664858
 Standard basis: LANL2DZ (5D, 7F)
 There are    30 symmetry adapted basis functions of A   symmetry.
 Integral buffers will be    262144 words long.
 Raffenetti 2 integral format.
 Two-electron integral symmetry is turned on.
    30 basis functions,    70 primitive gaussians,    30 cartesian basis functions
    13 alpha electrons       12 beta electrons
       nuclear repulsion energy        59.4169071293 Hartrees.
 NAtoms=    5 NActive=    5 NUniq=    5 SFac= 7.50D-01 NAtFMM=   80 NAOKFM=F Big=F
 ------------------------------------------------------------------------------
 Polarizable Continuum Model (PCM)
 =================================
 Model                : PCM.
 Atomic radii         : SMD-Coulomb.
 Polarization charges : Total charges.
 Charge compensation  : None.
 Solution method      : Matrix inversion.
 Cavity type          : VdW (van der Waals Surface) (Alpha=1.000).
 Cavity algorithm     : GePol (No added spheres)
                        Default sphere list used, NSphG=    5.
                        Lebedev-Laikov grids with approx.  5.0 points / Ang**2.
                        Smoothing algorithm: Karplus/York (Gamma=1.0000).
                        Polarization charges: spherical gaussians, with
                                              point-specific exponents (IZeta= 3).
                        Self-potential: point-specific (ISelfS= 7).
                        Self-field    : sphere-specific E.n sum rule (ISelfD= 2).
 1st derivatives      : Analytical E(r).r(x)/FMM algorithm (CHGder, D1EAlg=3).
                        Cavity 1st derivative terms included.
 Solvent              : Water, Eps=  78.355300 Eps(inf)=   1.777849
 ------------------------------------------------------------------------------
 Spheres list:
 ISph  on   Nord    Re0     Alpha      Xe            Ye            Ze
    1   O      1    1.520   1.000      1.246960      0.610682      0.005043
    2   H      2    1.200   1.000      1.453155      1.547686      0.089173
    3   O      3    1.520   1.000      2.569098     -0.395842     -0.114266
    4   H      4    1.200   1.000      2.812682     -0.677315      0.773584
    5   I      5    1.980   1.000     -0.656496     -0.048851      0.000208
 ------------------------------------------------------------------------------
 ------------------------------------------------------------------------------
 Atomic radii for non-electrostatic terms: SMD-CDS.
 ------------------------------------------------------------------------------
 Nuclear repulsion after PCM non-electrostatic terms =       59.4191667333 Hartrees.
 One-electron integrals computed using PRISM.
   1 Symmetry operations used in ECPInt.
 ECPInt:  NShTT=     171 NPrTT=    1054 LenC2=     172 LenP2D=     950.
 LDataN:  DoStor=T MaxTD1= 4 Len=   56
 NBasis=    30 RedAO= T  NBF=    30
 NBsUse=    30 1.00D-06 NBFU=    30
 Defaulting to unpruned grid for atomic number  53.
 Initial guess read from the read-write file.
 B after Tr=     0.000000    0.000000    0.000000
         Rot=    1.000000    0.000000    0.000000    0.000000 Ang=   0.00 deg.
 Initial guess orbital symmetries:
 Alpha Orbitals:
       Occupied  (A) (A) (A) (A) (A) (A) (A) (A) (A) (A) (A) (A)
                 (A)
       Virtual   (A) (A) (A) (A) (A) (A) (A) (A) (A) (A) (A) (A)
                 (A) (A) (A) (A) (A)
 Beta  Orbitals:
       Occupied  (A) (A) (A) (A) (A) (A) (A) (A) (A) (A) (A) (A)
       Virtual   (A) (A) (A) (A) (A) (A) (A) (A) (A) (A) (A) (A)
                 (A) (A) (A) (A) (A) (A)
 Initial guess <Sx>= 0.0000 <Sy>= 0.0000 <Sz>= 0.5000 <S**2>= 0.7723 S= 0.5111
 Harris functional with IExCor= 1009 diagonalized for initial guess.
 ExpMin= 1.05D-01 ExpMax= 7.82D+03 ExpMxC= 2.73D+02 IAcc=1 IRadAn=         1 AccDes= 0.00D+00
 HarFok:  IExCor= 1009 AccDes= 0.00D+00 IRadAn=         1 IDoV= 1
 ScaDFX=  1.000000  1.000000  1.000000  1.000000
 Defaulting to unpruned grid for atomic number  53.
 Defaulting to unpruned grid for atomic number  53.
 Defaulting to unpruned grid for atomic number  53.
 Defaulting to unpruned grid for atomic number  53.
 FoFCou: FMM=F IPFlag=           0 FMFlag=      100000 FMFlg1=           0
         NFxFlg=           0 DoJE=T BraDBF=F KetDBF=T FulRan=T
         Omega=  0.000000  0.000000  1.000000  0.000000  0.000000 ICntrl=     500 IOpCl=  0
         NMat0=    1 NMatS0=    1 NMatT0=    0 NMatD0=    1 NMtDS0=    0 NMtDT0=    0
         I1Cent=           4 NGrid=           0.
 Petite list used in FoFCou.
 Requested convergence on RMS density matrix=1.00D-08 within 128 cycles.
 Requested convergence on MAX density matrix=1.00D-06.
 Requested convergence on             energy=1.00D-06.
 No special actions if energy rises.
 Keep R1 and R2 ints in memory in canonical form, NReq=3514745.
 Defaulting to unpruned grid for atomic number  53.
 Defaulting to unpruned grid for atomic number  53.
 Defaulting to unpruned grid for atomic number  53.
 Defaulting to unpruned grid for atomic number  53.
 Error on total polarization charges =  0.06259
 SCF Done:  E(UM062X) =  -162.767416133     A.U. after   14 cycles
             Convg  =    0.4986D-08             -V/T =  2.0557
 <Sx>= 0.0000 <Sy>= 0.0000 <Sz>= 0.5000 <S**2>= 0.7734 S= 0.5116
 <L.S>= 0.000000000000E+00
 SMD-CDS (non-electrostatic) energy             (kcal/mol) =       1.42
 (included in total energy above)
 Annihilation of the first spin contaminant:
 S**2 before annihilation     0.7734,   after     0.7501
   1 Symmetry operations used in ECPInt.
 ECPInt:  NShTT=     171 NPrTT=    1054 LenC2=     172 LenP2D=     950.
 LDataN:  DoStor=T MaxTD1= 5 Len=  102
 D1PCM: PCM CHGder 1st derivatives, ID1Alg=3 FixD1E=F DoIter=F DoCFld=F I1PDM=0.
 Calling FoFJK, ICntrl=      2127 FMM=F ISym2X=0 I1Cent= 0 IOpClX= 1 NMat=1 NMatS=1 NMatT=0.
 Defaulting to unpruned grid for atomic number  53.
 Defaulting to unpruned grid for atomic number  53.
 Defaulting to unpruned grid for atomic number  53.
 Defaulting to unpruned grid for atomic number  53.
 ***** Axes restored to original set *****
 -------------------------------------------------------------------
 Center     Atomic                   Forces (Hartrees/Bohr)
 Number     Number              X              Y              Z
 -------------------------------------------------------------------
      1        8          -0.024686437    0.004308137    0.012615851
      2        1          -0.016310692    0.001096044   -0.021979675
      3        8           0.063617214   -0.033734638   -0.014271390
      4        1          -0.001722046    0.028019220    0.001044770
      5       53          -0.020898039    0.000311237    0.022590444
 -------------------------------------------------------------------
 Cartesian Forces:  Max     0.063617214 RMS     0.024031398

 GradGradGradGradGradGradGradGradGradGradGradGradGradGradGradGradGradGrad
 Berny optimization.
 Internal  Forces:  Max     0.062813804 RMS     0.026656439
 Search for a saddle point.
 Step number   3 out of a maximum of   20
 All quantities printed in internal units (Hartrees-Bohrs-Radians)
 Swaping is turned off.
 Update second derivatives using D2CorX and points    1    2    3
 The second derivative matrix:
                          R1        R2        R3        R4        A1
           R1           0.57499
           R2           0.03274  -0.01686
           R3          -0.02151   0.16013   0.12978
           R4           0.00021  -0.00645  -0.00131   0.58552
           A1          -0.00902  -0.04829   0.02177  -0.00071   0.02817
           A2           0.00600   0.00816   0.01003   0.00167  -0.02627
           A3           0.00306   0.04019  -0.03156  -0.00087  -0.00212
           A4           0.00078   0.00012   0.01274  -0.01021  -0.00122
           D1           0.00056  -0.00049   0.00114   0.00159   0.00394
           D2          -0.00074  -0.00179  -0.00009   0.00039   0.00085
                          A2        A3        A4        D1        D2
           A2           0.05219
           A3          -0.02592   0.02822
           A4          -0.00027   0.00141   0.09058
           D1          -0.00242  -0.00148   0.00597  -0.00102
           D2           0.00094  -0.00170  -0.00087   0.00618  -0.00355
     Eigenvalues ---   -0.15109  -0.00889   0.00345   0.05928   0.07655
     Eigenvalues ---    0.09042   0.23489   0.57760   0.585841000.00000
 Eigenvectors required to have negative eigenvalues:
                          R2        R3        A1        A3        R1
   1                    0.78076  -0.49949   0.26485  -0.26024  -0.04560
                          A4        R4        D2        A2        D1
   1                    0.02935   0.00633   0.00481  -0.00472  -0.00449
 RFO step:  Lambda0=4.468958817D-03 Lambda=-3.13402223D-02.
 Linear search not attempted -- option 19 set.
 Maximum step size (   0.030) exceeded in Quadratic search.
    -- Step size scaled by   0.060
 Iteration  1 RMS(Cart)=  0.01405269 RMS(Int)=  0.00009081
 Iteration  2 RMS(Cart)=  0.00008554 RMS(Int)=  0.00000297
 Iteration  3 RMS(Cart)=  0.00000000 RMS(Int)=  0.00000297
 Variable       Old X    -DE/DX   Delta X   Delta X   Delta X     New X
                                 (Linear)    (Quad)   (Total)
    R1        1.82000   0.02721   0.00000   0.00271   0.00271   1.82271
    R2        3.14818   0.06281   0.00000   0.00581   0.00581   3.15399
    R3        3.80683   0.02982   0.00000   0.01322   0.01322   3.82004
    R4        1.81928   0.02608   0.00000   0.00246   0.00246   1.82174
    A1        2.00882  -0.00608   0.00000  -0.01053  -0.01054   1.99828
    A2        2.11885  -0.01163   0.00000  -0.00826  -0.00827   2.11058
    A3        2.15545   0.01769   0.00000   0.01872   0.01872   2.17417
    A4        1.88746  -0.01905   0.00000  -0.01083  -0.01083   1.87663
    D1        1.59130  -0.00099   0.00000  -0.00073  -0.00073   1.59057
    D2       -1.53760   0.00114   0.00000   0.00554   0.00554  -1.53206
         Item               Value     Threshold  Converged?
 Maximum Force            0.062814     0.000450     NO 
 RMS     Force            0.026656     0.000300     NO 
 Maximum Displacement     0.028645     0.001800     NO 
 RMS     Displacement     0.014059     0.001200     NO 
 Predicted change in Energy=-1.565621D-03
 GradGradGradGradGradGradGradGradGradGradGradGradGradGradGradGradGradGrad

                          Input orientation:                          
 ---------------------------------------------------------------------
 Center     Atomic      Atomic             Coordinates (Angstroms)
 Number     Number       Type             X           Y           Z
 ---------------------------------------------------------------------
      1          8           0       -1.312288    0.702921   -0.028645
      2          1           0       -1.791210    0.720189   -0.865703
      3          8           0        0.349644    0.700369   -0.182249
      4          1           0        0.643342    1.618524   -0.173631
      5         53           0       -2.301256    0.704654    1.734398
 ---------------------------------------------------------------------
                    Distance matrix (angstroms):
                    1          2          3          4          5
     1  O    0.000000
     2  H    0.964536   0.000000
     3  O    1.669017   2.247389   0.000000
     4  H    2.164218   2.685705   0.964024   0.000000
     5  I    2.021480   2.649700   3.271211   3.625795   0.000000
 Stoichiometry    H2IO2(2)
 Framework group  C1[X(H2IO2)]
 Deg. of freedom     9
 Full point group                 C1      NOp   1
 Largest Abelian subgroup         C1      NOp   1
 Largest concise Abelian subgroup C1      NOp   1
                         Standard orientation:                         
 ---------------------------------------------------------------------
 Center     Atomic      Atomic             Coordinates (Angstroms)
 Number     Number       Type             X           Y           Z
 ---------------------------------------------------------------------
      1          8           0        1.253151    0.601625    0.003963
      2          1           0        1.457881    1.539900    0.093722
      3          8           0        2.590323   -0.390140   -0.114313
      4          1           0        2.825770   -0.667615    0.778388
      5         53           0       -0.660971   -0.048380    0.000202
 ---------------------------------------------------------------------
 Rotational constants (GHZ):     41.6554893      2.5673347      2.4365183
 Standard basis: LANL2DZ (5D, 7F)
 There are    30 symmetry adapted basis functions of A   symmetry.
 Integral buffers will be    262144 words long.
 Raffenetti 2 integral format.
 Two-electron integral symmetry is turned on.
    30 basis functions,    70 primitive gaussians,    30 cartesian basis functions
    13 alpha electrons       12 beta electrons
       nuclear repulsion energy        59.2472417336 Hartrees.
 NAtoms=    5 NActive=    5 NUniq=    5 SFac= 7.50D-01 NAtFMM=   80 NAOKFM=F Big=F
 ------------------------------------------------------------------------------
 Polarizable Continuum Model (PCM)
 =================================
 Model                : PCM.
 Atomic radii         : SMD-Coulomb.
 Polarization charges : Total charges.
 Charge compensation  : None.
 Solution method      : Matrix inversion.
 Cavity type          : VdW (van der Waals Surface) (Alpha=1.000).
 Cavity algorithm     : GePol (No added spheres)
                        Default sphere list used, NSphG=    5.
                        Lebedev-Laikov grids with approx.  5.0 points / Ang**2.
                        Smoothing algorithm: Karplus/York (Gamma=1.0000).
                        Polarization charges: spherical gaussians, with
                                              point-specific exponents (IZeta= 3).
                        Self-potential: point-specific (ISelfS= 7).
                        Self-field    : sphere-specific E.n sum rule (ISelfD= 2).
 1st derivatives      : Analytical E(r).r(x)/FMM algorithm (CHGder, D1EAlg=3).
                        Cavity 1st derivative terms included.
 Solvent              : Water, Eps=  78.355300 Eps(inf)=   1.777849
 ------------------------------------------------------------------------------
 Spheres list:
 ISph  on   Nord    Re0     Alpha      Xe            Ye            Ze
    1   O      1    1.520   1.000      1.253151      0.601625      0.003963
    2   H      2    1.200   1.000      1.457881      1.539900      0.093722
    3   O      3    1.520   1.000      2.590323     -0.390140     -0.114313
    4   H      4    1.200   1.000      2.825770     -0.667615      0.778388
    5   I      5    1.980   1.000     -0.660971     -0.048380      0.000202
 ------------------------------------------------------------------------------
 ------------------------------------------------------------------------------
 Atomic radii for non-electrostatic terms: SMD-CDS.
 ------------------------------------------------------------------------------
 Nuclear repulsion after PCM non-electrostatic terms =       59.2494992559 Hartrees.
 One-electron integrals computed using PRISM.
   1 Symmetry operations used in ECPInt.
 ECPInt:  NShTT=     171 NPrTT=    1054 LenC2=     172 LenP2D=     950.
 LDataN:  DoStor=T MaxTD1= 4 Len=   56
 NBasis=    30 RedAO= T  NBF=    30
 NBsUse=    30 1.00D-06 NBFU=    30
 Defaulting to unpruned grid for atomic number  53.
 Initial guess read from the read-write file.
 B after Tr=     0.000000    0.000000    0.000000
         Rot=    1.000000    0.000000    0.000000    0.000000 Ang=   0.00 deg.
 Initial guess orbital symmetries:
 Alpha Orbitals:
       Occupied  (A) (A) (A) (A) (A) (A) (A) (A) (A) (A) (A) (A)
                 (A)
       Virtual   (A) (A) (A) (A) (A) (A) (A) (A) (A) (A) (A) (A)
                 (A) (A) (A) (A) (A)
 Beta  Orbitals:
       Occupied  (A) (A) (A) (A) (A) (A) (A) (A) (A) (A) (A) (A)
       Virtual   (A) (A) (A) (A) (A) (A) (A) (A) (A) (A) (A) (A)
                 (A) (A) (A) (A) (A) (A)
 Initial guess <Sx>= 0.0000 <Sy>= 0.0000 <Sz>= 0.5000 <S**2>= 0.7733 S= 0.5116
 Harris functional with IExCor= 1009 diagonalized for initial guess.
 ExpMin= 1.05D-01 ExpMax= 7.82D+03 ExpMxC= 2.73D+02 IAcc=1 IRadAn=         1 AccDes= 0.00D+00
 HarFok:  IExCor= 1009 AccDes= 0.00D+00 IRadAn=         1 IDoV= 1
 ScaDFX=  1.000000  1.000000  1.000000  1.000000
 Defaulting to unpruned grid for atomic number  53.
 Defaulting to unpruned grid for atomic number  53.
 Defaulting to unpruned grid for atomic number  53.
 Defaulting to unpruned grid for atomic number  53.
 FoFCou: FMM=F IPFlag=           0 FMFlag=      100000 FMFlg1=           0
         NFxFlg=           0 DoJE=T BraDBF=F KetDBF=T FulRan=T
         Omega=  0.000000  0.000000  1.000000  0.000000  0.000000 ICntrl=     500 IOpCl=  0
         NMat0=    1 NMatS0=    1 NMatT0=    0 NMatD0=    1 NMtDS0=    0 NMtDT0=    0
         I1Cent=           4 NGrid=           0.
 Petite list used in FoFCou.
 Requested convergence on RMS density matrix=1.00D-08 within 128 cycles.
 Requested convergence on MAX density matrix=1.00D-06.
 Requested convergence on             energy=1.00D-06.
 No special actions if energy rises.
 Keep R1 and R2 ints in memory in canonical form, NReq=3514715.
 Defaulting to unpruned grid for atomic number  53.
 Defaulting to unpruned grid for atomic number  53.
 Defaulting to unpruned grid for atomic number  53.
 Defaulting to unpruned grid for atomic number  53.
 Error on total polarization charges =  0.06272
 SCF Done:  E(UM062X) =  -162.768989400     A.U. after   14 cycles
             Convg  =    0.4938D-08             -V/T =  2.0559
 <Sx>= 0.0000 <Sy>= 0.0000 <Sz>= 0.5000 <S**2>= 0.7744 S= 0.5121
 <L.S>= 0.000000000000E+00
 SMD-CDS (non-electrostatic) energy             (kcal/mol) =       1.42
 (included in total energy above)
 Annihilation of the first spin contaminant:
 S**2 before annihilation     0.7744,   after     0.7501
   1 Symmetry operations used in ECPInt.
 ECPInt:  NShTT=     171 NPrTT=    1054 LenC2=     172 LenP2D=     950.
 LDataN:  DoStor=T MaxTD1= 5 Len=  102
 D1PCM: PCM CHGder 1st derivatives, ID1Alg=3 FixD1E=F DoIter=F DoCFld=F I1PDM=0.
 Calling FoFJK, ICntrl=      2127 FMM=F ISym2X=0 I1Cent= 0 IOpClX= 1 NMat=1 NMatS=1 NMatT=0.
 Defaulting to unpruned grid for atomic number  53.
 Defaulting to unpruned grid for atomic number  53.
 Defaulting to unpruned grid for atomic number  53.
 Defaulting to unpruned grid for atomic number  53.
 ***** Axes restored to original set *****
 -------------------------------------------------------------------
 Center     Atomic                   Forces (Hartrees/Bohr)
 Number     Number              X              Y              Z
 -------------------------------------------------------------------
      1        8          -0.023163867    0.003858695    0.012844452
      2        1          -0.015362446    0.001214064   -0.020737962
      3        8           0.060647437   -0.031908485   -0.014568617
      4        1          -0.001978512    0.026469859    0.001272823
      5       53          -0.020142611    0.000365867    0.021189303
 -------------------------------------------------------------------
 Cartesian Forces:  Max     0.060647437 RMS     0.022881604

 GradGradGradGradGradGradGradGradGradGradGradGradGradGradGradGradGradGrad
 Berny optimization.
 Internal  Forces:  Max     0.059677657 RMS     0.025333231
 Search for a saddle point.
 Step number   4 out of a maximum of   20
 All quantities printed in internal units (Hartrees-Bohrs-Radians)
 Swaping is turned off.
 Update second derivatives using D2CorX and points    1    2    3    4
 The second derivative matrix:
                          R1        R2        R3        R4        A1
           R1           0.57499
           R2           0.03241  -0.01990
           R3          -0.02156   0.15799   0.12946
           R4           0.00015  -0.00717  -0.00168   0.58537
           A1          -0.00905  -0.04701   0.02176  -0.00051   0.02836
           A2           0.00604   0.00956   0.01039   0.00192  -0.02636
           A3           0.00305   0.03751  -0.03192  -0.00132  -0.00222
           A4           0.00070   0.00108   0.01244  -0.01009  -0.00082
           D1           0.00056  -0.00041   0.00113   0.00160   0.00396
           D2          -0.00071  -0.00243  -0.00009   0.00029   0.00074
                          A2        A3        A4        D1        D2
           A2           0.05189
           A3          -0.02553   0.02791
           A4          -0.00016   0.00091   0.09116
           D1          -0.00242  -0.00150   0.00601  -0.00102
           D2           0.00097  -0.00163  -0.00108   0.00617  -0.00349
     Eigenvalues ---   -0.14979  -0.00886   0.00346   0.05769   0.07591
     Eigenvalues ---    0.09088   0.23217   0.57757   0.585711000.00000
 Eigenvectors required to have negative eigenvalues:
                          R2        R3        A1        A3        R1
   1                    0.78551  -0.49792   0.26119  -0.25285  -0.04555
                          A4        D2        A2        R4        D1
   1                    0.02458   0.00878  -0.00858   0.00662  -0.00499
 RFO step:  Lambda0=4.239179871D-03 Lambda=-2.95704469D-02.
 Linear search not attempted -- option 19 set.
 Maximum step size (   0.030) exceeded in Quadratic search.
    -- Step size scaled by   0.060
 Iteration  1 RMS(Cart)=  0.01409476 RMS(Int)=  0.00009052
 Iteration  2 RMS(Cart)=  0.00008525 RMS(Int)=  0.00000296
 Iteration  3 RMS(Cart)=  0.00000000 RMS(Int)=  0.00000296
 Variable       Old X    -DE/DX   Delta X   Delta X   Delta X     New X
                                 (Linear)    (Quad)   (Total)
    R1        1.82271   0.02567   0.00000   0.00256   0.00256   1.82527
    R2        3.15399   0.05968   0.00000   0.00565   0.00565   3.15963
    R3        3.82004   0.02830   0.00000   0.01304   0.01304   3.83308
    R4        1.82174   0.02463   0.00000   0.00237   0.00237   1.82411
    A1        1.99828  -0.00595   0.00000  -0.01071  -0.01072   1.98756
    A2        2.11058  -0.01123   0.00000  -0.00835  -0.00835   2.10223
    A3        2.17417   0.01715   0.00000   0.01895   0.01895   2.19311
    A4        1.87663  -0.01822   0.00000  -0.01040  -0.01040   1.86623
    D1        1.59057  -0.00093   0.00000  -0.00059  -0.00059   1.58998
    D2       -1.53206   0.00122   0.00000   0.00581   0.00581  -1.52625
         Item               Value     Threshold  Converged?
 Maximum Force            0.059678     0.000450     NO 
 RMS     Force            0.025333     0.000300     NO 
 Maximum Displacement     0.028692     0.001800     NO 
 RMS     Displacement     0.014101     0.001200     NO 
 Predicted change in Energy=-1.476420D-03
 GradGradGradGradGradGradGradGradGradGradGradGradGradGradGradGradGradGrad

                          Input orientation:                          
 ---------------------------------------------------------------------
 Center     Atomic      Atomic             Coordinates (Angstroms)
 Number     Number       Type             X           Y           Z
 ---------------------------------------------------------------------
      1          8           0       -1.307263    0.701063   -0.021925
      2          1           0       -1.785733    0.724031   -0.860666
      3          8           0        0.356123    0.698021   -0.191460
      4          1           0        0.641544    1.620056   -0.179365
      5         53           0       -2.316439    0.703487    1.737587
 ---------------------------------------------------------------------
                    Distance matrix (angstroms):
                    1          2          3          4          5
     1  O    0.000000
     2  H    0.965892   0.000000
     3  O    1.672006   2.244117   0.000000
     4  H    2.160367   2.675576   0.965277   0.000000
     5  I    2.028380   2.651979   3.296034   3.642041   0.000000
 Stoichiometry    H2IO2(2)
 Framework group  C1[X(H2IO2)]
 Deg. of freedom     9
 Full point group                 C1      NOp   1
 Largest Abelian subgroup         C1      NOp   1
 Largest concise Abelian subgroup C1      NOp   1
                         Standard orientation:                         
 ---------------------------------------------------------------------
 Center     Atomic      Atomic             Coordinates (Angstroms)
 Number     Number       Type             X           Y           Z
 ---------------------------------------------------------------------
      1          8           0        1.259288    0.592303    0.002879
      2          1           0        1.462541    1.531718    0.098447
      3          8           0        2.611413   -0.384235   -0.114329
      4          1           0        2.838765   -0.658326    0.782858
      5         53           0       -0.665414   -0.047885    0.000194
 ---------------------------------------------------------------------
 Rotational constants (GHZ):     42.6657981      2.5310707      2.4073012
 Standard basis: LANL2DZ (5D, 7F)
 There are    30 symmetry adapted basis functions of A   symmetry.
 Integral buffers will be    262144 words long.
 Raffenetti 2 integral format.
 Two-electron integral symmetry is turned on.
    30 basis functions,    70 primitive gaussians,    30 cartesian basis functions
    13 alpha electrons       12 beta electrons
       nuclear repulsion energy        59.0822337446 Hartrees.
 NAtoms=    5 NActive=    5 NUniq=    5 SFac= 7.50D-01 NAtFMM=   80 NAOKFM=F Big=F
 ------------------------------------------------------------------------------
 Polarizable Continuum Model (PCM)
 =================================
 Model                : PCM.
 Atomic radii         : SMD-Coulomb.
 Polarization charges : Total charges.
 Charge compensation  : None.
 Solution method      : Matrix inversion.
 Cavity type          : VdW (van der Waals Surface) (Alpha=1.000).
 Cavity algorithm     : GePol (No added spheres)
                        Default sphere list used, NSphG=    5.
                        Lebedev-Laikov grids with approx.  5.0 points / Ang**2.
                        Smoothing algorithm: Karplus/York (Gamma=1.0000).
                        Polarization charges: spherical gaussians, with
                                              point-specific exponents (IZeta= 3).
                        Self-potential: point-specific (ISelfS= 7).
                        Self-field    : sphere-specific E.n sum rule (ISelfD= 2).
 1st derivatives      : Analytical E(r).r(x)/FMM algorithm (CHGder, D1EAlg=3).
                        Cavity 1st derivative terms included.
 Solvent              : Water, Eps=  78.355300 Eps(inf)=   1.777849
 ------------------------------------------------------------------------------
 Spheres list:
 ISph  on   Nord    Re0     Alpha      Xe            Ye            Ze
    1   O      1    1.520   1.000      1.259288      0.592303      0.002879
    2   H      2    1.200   1.000      1.462541      1.531718      0.098447
    3   O      3    1.520   1.000      2.611413     -0.384235     -0.114329
    4   H      4    1.200   1.000      2.838765     -0.658326      0.782858
    5   I      5    1.980   1.000     -0.665414     -0.047885      0.000194
 ------------------------------------------------------------------------------
 ------------------------------------------------------------------------------
 Atomic radii for non-electrostatic terms: SMD-CDS.
 ------------------------------------------------------------------------------
 Nuclear repulsion after PCM non-electrostatic terms =       59.0844884951 Hartrees.
 One-electron integrals computed using PRISM.
   1 Symmetry operations used in ECPInt.
 ECPInt:  NShTT=     171 NPrTT=    1054 LenC2=     172 LenP2D=     951.
 LDataN:  DoStor=T MaxTD1= 4 Len=   56
 NBasis=    30 RedAO= T  NBF=    30
 NBsUse=    30 1.00D-06 NBFU=    30
 Defaulting to unpruned grid for atomic number  53.
 Initial guess read from the read-write file.
 B after Tr=     0.000000    0.000000    0.000000
         Rot=    1.000000    0.000000    0.000000    0.000000 Ang=   0.00 deg.
 Initial guess orbital symmetries:
 Alpha Orbitals:
       Occupied  (A) (A) (A) (A) (A) (A) (A) (A) (A) (A) (A) (A)
                 (A)
       Virtual   (A) (A) (A) (A) (A) (A) (A) (A) (A) (A) (A) (A)
                 (A) (A) (A) (A) (A)
 Beta  Orbitals:
       Occupied  (A) (A) (A) (A) (A) (A) (A) (A) (A) (A) (A) (A)
       Virtual   (A) (A) (A) (A) (A) (A) (A) (A) (A) (A) (A) (A)
                 (A) (A) (A) (A) (A) (A)
 Initial guess <Sx>= 0.0000 <Sy>= 0.0000 <Sz>= 0.5000 <S**2>= 0.7743 S= 0.5121
 Harris functional with IExCor= 1009 diagonalized for initial guess.
 ExpMin= 1.05D-01 ExpMax= 7.82D+03 ExpMxC= 2.73D+02 IAcc=1 IRadAn=         1 AccDes= 0.00D+00
 HarFok:  IExCor= 1009 AccDes= 0.00D+00 IRadAn=         1 IDoV= 1
 ScaDFX=  1.000000  1.000000  1.000000  1.000000
 Defaulting to unpruned grid for atomic number  53.
 Defaulting to unpruned grid for atomic number  53.
 Defaulting to unpruned grid for atomic number  53.
 Defaulting to unpruned grid for atomic number  53.
 FoFCou: FMM=F IPFlag=           0 FMFlag=      100000 FMFlg1=           0
         NFxFlg=           0 DoJE=T BraDBF=F KetDBF=T FulRan=T
         Omega=  0.000000  0.000000  1.000000  0.000000  0.000000 ICntrl=     500 IOpCl=  0
         NMat0=    1 NMatS0=    1 NMatT0=    0 NMatD0=    1 NMtDS0=    0 NMtDT0=    0
         I1Cent=           4 NGrid=           0.
 Petite list used in FoFCou.
 Requested convergence on RMS density matrix=1.00D-08 within 128 cycles.
 Requested convergence on MAX density matrix=1.00D-06.
 Requested convergence on             energy=1.00D-06.
 No special actions if energy rises.
 Keep R1 and R2 ints in memory in canonical form, NReq=3519741.
 Defaulting to unpruned grid for atomic number  53.
 Defaulting to unpruned grid for atomic number  53.
 Defaulting to unpruned grid for atomic number  53.
 Defaulting to unpruned grid for atomic number  53.
 Error on total polarization charges =  0.06284
 SCF Done:  E(UM062X) =  -162.770472830     A.U. after   14 cycles
             Convg  =    0.4938D-08             -V/T =  2.0560
 <Sx>= 0.0000 <Sy>= 0.0000 <Sz>= 0.5000 <S**2>= 0.7754 S= 0.5126
 <L.S>= 0.000000000000E+00
 SMD-CDS (non-electrostatic) energy             (kcal/mol) =       1.41
 (included in total energy above)
 Annihilation of the first spin contaminant:
 S**2 before annihilation     0.7754,   after     0.7501
   1 Symmetry operations used in ECPInt.
 ECPInt:  NShTT=     171 NPrTT=    1054 LenC2=     172 LenP2D=     951.
 LDataN:  DoStor=T MaxTD1= 5 Len=  102
 D1PCM: PCM CHGder 1st derivatives, ID1Alg=3 FixD1E=F DoIter=F DoCFld=F I1PDM=0.
 Calling FoFJK, ICntrl=      2127 FMM=F ISym2X=0 I1Cent= 0 IOpClX= 1 NMat=1 NMatS=1 NMatT=0.
 Defaulting to unpruned grid for atomic number  53.
 Defaulting to unpruned grid for atomic number  53.
 Defaulting to unpruned grid for atomic number  53.
 Defaulting to unpruned grid for atomic number  53.
 ***** Axes restored to original set *****
 -------------------------------------------------------------------
 Center     Atomic                   Forces (Hartrees/Bohr)
 Number     Number              X              Y              Z
 -------------------------------------------------------------------
      1        8          -0.021719024    0.003426300    0.013037803
      2        1          -0.014466946    0.001315700   -0.019564895
      3        8           0.057780626   -0.030150385   -0.014819674
      4        1          -0.002184298    0.024990131    0.001485638
      5       53          -0.019410358    0.000418254    0.019861128
 -------------------------------------------------------------------
 Cartesian Forces:  Max     0.057780626 RMS     0.021782874

 GradGradGradGradGradGradGradGradGradGradGradGradGradGradGradGradGradGrad
 Berny optimization.
 Internal  Forces:  Max     0.056693254 RMS     0.024074204
 Search for a saddle point.
 Step number   5 out of a maximum of   20
 All quantities printed in internal units (Hartrees-Bohrs-Radians)
 Swaping is turned off.
 Update second derivatives using D2CorX and points    1    2    3    4    5
 The second derivative matrix:
                          R1        R2        R3        R4        A1
           R1           0.57498
           R2           0.03201  -0.02296
           R3          -0.02162   0.15600   0.12915
           R4           0.00010  -0.00776  -0.00194   0.58527
           A1          -0.00905  -0.04569   0.02174  -0.00037   0.02857
           A2           0.00611   0.01103   0.01075   0.00213  -0.02646
           A3           0.00298   0.03473  -0.03227  -0.00167  -0.00231
           A4           0.00065   0.00208   0.01217  -0.01002  -0.00044
           D1           0.00056  -0.00033   0.00114   0.00161   0.00397
           D2          -0.00070  -0.00304   0.00001   0.00024   0.00057
                          A2        A3        A4        D1        D2
           A2           0.05155
           A3          -0.02508   0.02755
           A4          -0.00008   0.00046   0.09169
           D1          -0.00243  -0.00149   0.00602  -0.00102
           D2           0.00097  -0.00146  -0.00134   0.00616  -0.00337
     Eigenvalues ---   -0.14862  -0.00879   0.00352   0.05584   0.07531
     Eigenvalues ---    0.09130   0.22970   0.57752   0.585641000.00000
 Eigenvectors required to have negative eigenvalues:
                          R2        R3        A1        A3        R1
   1                    0.79044  -0.49634   0.25705  -0.24474  -0.04547
                          A4        D2        A2        R4        D1
   1                    0.01986   0.01338  -0.01273   0.00695  -0.00528
 RFO step:  Lambda0=4.026168686D-03 Lambda=-2.79305258D-02.
 Linear search not attempted -- option 19 set.
 Maximum step size (   0.030) exceeded in Quadratic search.
    -- Step size scaled by   0.060
 Iteration  1 RMS(Cart)=  0.01416696 RMS(Int)=  0.00009051
 Iteration  2 RMS(Cart)=  0.00008534 RMS(Int)=  0.00000271
 Iteration  3 RMS(Cart)=  0.00000000 RMS(Int)=  0.00000271
 Variable       Old X    -DE/DX   Delta X   Delta X   Delta X     New X
                                 (Linear)    (Quad)   (Total)
    R1        1.82527   0.02420   0.00000   0.00243   0.00243   1.82770
    R2        3.15963   0.05669   0.00000   0.00548   0.00548   3.16511
    R3        3.83308   0.02685   0.00000   0.01288   0.01288   3.84597
    R4        1.82411   0.02326   0.00000   0.00227   0.00227   1.82638
    A1        1.98756  -0.00583   0.00000  -0.01089  -0.01090   1.97667
    A2        2.10223  -0.01084   0.00000  -0.00845  -0.00846   2.09377
    A3        2.19311   0.01663   0.00000   0.01921   0.01920   2.21232
    A4        1.86623  -0.01742   0.00000  -0.00997  -0.00997   1.85626
    D1        1.58998  -0.00087   0.00000  -0.00044  -0.00044   1.58954
    D2       -1.52625   0.00128   0.00000   0.00586   0.00586  -1.52039
         Item               Value     Threshold  Converged?
 Maximum Force            0.056693     0.000450     NO 
 RMS     Force            0.024074     0.000300     NO 
 Maximum Displacement     0.028830     0.001800     NO 
 RMS     Displacement     0.014174     0.001200     NO 
 Predicted change in Energy=-1.393034D-03
[...]
 ------------------------------------------------------------------------------
 Nuclear repulsion after PCM non-electrostatic terms =       57.1333179566 Hartrees.
 One-electron integrals computed using PRISM.
   1 Symmetry operations used in ECPInt.
 ECPInt:  NShTT=     171 NPrTT=    1054 LenC2=     172 LenP2D=     947.
 LDataN:  DoStor=T MaxTD1= 4 Len=   56
 NBasis=    30 RedAO= T  NBF=    30
 NBsUse=    30 1.00D-06 NBFU=    30
 Defaulting to unpruned grid for atomic number  53.
 Initial guess read from the read-write file.
 B after Tr=     0.000000    0.000000    0.000000
         Rot=    1.000000    0.000000    0.000000    0.000000 Ang=   0.00 deg.
 Initial guess orbital symmetries:
 Alpha Orbitals:
       Occupied  (A) (A) (A) (A) (A) (A) (A) (A) (A) (A) (A) (A)
                 (A)
       Virtual   (A) (A) (A) (A) (A) (A) (A) (A) (A) (A) (A) (A)
                 (A) (A) (A) (A) (A)
 Beta  Orbitals:
       Occupied  (A) (A) (A) (A) (A) (A) (A) (A) (A) (A) (A) (A)
       Virtual   (A) (A) (A) (A) (A) (A) (A) (A) (A) (A) (A) (A)
                 (A) (A) (A) (A) (A) (A)
 Initial guess <Sx>= 0.0000 <Sy>= 0.0000 <Sz>= 0.5000 <S**2>= 0.7892 S= 0.5194
 Harris functional with IExCor= 1009 diagonalized for initial guess.
 ExpMin= 1.05D-01 ExpMax= 7.82D+03 ExpMxC= 2.73D+02 IAcc=1 IRadAn=         1 AccDes= 0.00D+00
 HarFok:  IExCor= 1009 AccDes= 0.00D+00 IRadAn=         1 IDoV= 1
 ScaDFX=  1.000000  1.000000  1.000000  1.000000
 Defaulting to unpruned grid for atomic number  53.
 Defaulting to unpruned grid for atomic number  53.
 Defaulting to unpruned grid for atomic number  53.
 Defaulting to unpruned grid for atomic number  53.
 FoFCou: FMM=F IPFlag=           0 FMFlag=      100000 FMFlg1=           0
         NFxFlg=           0 DoJE=T BraDBF=F KetDBF=T FulRan=T
         Omega=  0.000000  0.000000  1.000000  0.000000  0.000000 ICntrl=     500 IOpCl=  0
         NMat0=    1 NMatS0=    1 NMatT0=    0 NMatD0=    1 NMtDS0=    0 NMtDT0=    0
         I1Cent=           4 NGrid=           0.
 Petite list used in FoFCou.
 Requested convergence on RMS density matrix=1.00D-08 within 128 cycles.
 Requested convergence on MAX density matrix=1.00D-06.
 Requested convergence on             energy=1.00D-06.
 No special actions if energy rises.
 Keep R1 and R2 ints in memory in canonical form, NReq=3532308.
 Defaulting to unpruned grid for atomic number  53.
 Defaulting to unpruned grid for atomic number  53.
 Defaulting to unpruned grid for atomic number  53.
 Defaulting to unpruned grid for atomic number  53.
 Error on total polarization charges =  0.06472
 SCF Done:  E(UM062X) =  -162.784297085     A.U. after   14 cycles
             Convg  =    0.6041D-08             -V/T =  2.0576
 <Sx>= 0.0000 <Sy>= 0.0000 <Sz>= 0.5000 <S**2>= 0.7903 S= 0.5199
 <L.S>= 0.000000000000E+00
 SMD-CDS (non-electrostatic) energy             (kcal/mol) =       1.36
 (included in total energy above)
 Annihilation of the first spin contaminant:
 S**2 before annihilation     0.7903,   after     0.7501
   1 Symmetry operations used in ECPInt.
 ECPInt:  NShTT=     171 NPrTT=    1054 LenC2=     172 LenP2D=     947.
 LDataN:  DoStor=T MaxTD1= 5 Len=  102
 D1PCM: PCM CHGder 1st derivatives, ID1Alg=3 FixD1E=F DoIter=F DoCFld=F I1PDM=0.
 Calling FoFJK, ICntrl=      2127 FMM=F ISym2X=0 I1Cent= 0 IOpClX= 1 NMat=1 NMatS=1 NMatT=0.
 Defaulting to unpruned grid for atomic number  53.
 Defaulting to unpruned grid for atomic number  53.
 Defaulting to unpruned grid for atomic number  53.
 Defaulting to unpruned grid for atomic number  53.
 ***** Axes restored to original set *****
 -------------------------------------------------------------------
 Center     Atomic                   Forces (Hartrees/Bohr)
 Number     Number              X              Y              Z
 -------------------------------------------------------------------
      1        8          -0.006639417    0.000644924    0.010038602
      2        1          -0.005258089    0.000599696   -0.007231687
      3        8           0.022985708   -0.011004373   -0.012032509
      4        1          -0.001521489    0.009194070    0.002560058
      5       53          -0.009566713    0.000565683    0.006665535
 -------------------------------------------------------------------
 Cartesian Forces:  Max     0.022985708 RMS     0.009126763

 GradGradGradGradGradGradGradGradGradGradGradGradGradGradGradGradGradGrad
 Berny optimization.
 Internal  Forces:  Max     0.023162396 RMS     0.009876595
 Search for a saddle point.
 Step number  20 out of a maximum of   20
 All quantities printed in internal units (Hartrees-Bohrs-Radians)
 Swaping is turned off.
 Update second derivatives using D2CorX and points   10   11   12   13   14
                                                     15   16   17   18   19
                                                     20
 The second derivative matrix:
                          R1        R2        R3        R4        A1
           R1           0.57588
           R2           0.02910  -0.03068
           R3          -0.02123   0.13998   0.12093
           R4          -0.00022  -0.00914  -0.00384   0.58512
           A1          -0.01160  -0.02823   0.02084   0.00095   0.04008
           A2           0.00499   0.02528   0.01430   0.00340  -0.02244
           A3           0.00660   0.00281  -0.03511  -0.00427  -0.01770
           A4          -0.00089   0.00868   0.01002  -0.00965   0.00695
           D1           0.00163  -0.00529  -0.00229   0.00052   0.00268
           D2          -0.00030  -0.00528  -0.00288   0.00014  -0.00148
                          A2        A3        A4        D1        D2
           A2           0.05108
           A3          -0.02850   0.04607
           A4           0.00359  -0.01051   0.09593
           D1          -0.00190  -0.00098   0.00497  -0.00072
           D2          -0.00018   0.00193  -0.00272   0.00365  -0.00167
     Eigenvalues ---   -0.12581  -0.00531   0.00225   0.06081   0.07209
     Eigenvalues ---    0.09718   0.21694   0.57827   0.585611000.00000
 Eigenvectors required to have negative eigenvalues:
                          R2        R3        A1        A3        A2
   1                    0.83346  -0.50198   0.18073  -0.10923  -0.07175
                          R1        D2        D1        A4        R4
   1                   -0.04529   0.02640   0.02082  -0.01965   0.00716
 RFO step:  Lambda0=1.222103931D-03 Lambda=-6.41847347D-03.
 Linear search not attempted -- option 19 set.
 Maximum step size (   0.030) exceeded in Quadratic search.
    -- Step size scaled by   0.088
 Iteration  1 RMS(Cart)=  0.01089128 RMS(Int)=  0.00009054
 Iteration  2 RMS(Cart)=  0.00007061 RMS(Int)=  0.00000599
 Iteration  3 RMS(Cart)=  0.00000001 RMS(Int)=  0.00000599
 Variable       Old X    -DE/DX   Delta X   Delta X   Delta X     New X
                                 (Linear)    (Quad)   (Total)
    R1        1.85346   0.00888   0.00000   0.00149   0.00149   1.85495
    R2        3.21138   0.02316   0.00000   0.00109   0.00109   3.21248
    R3        4.03024   0.01115   0.00000   0.01454   0.01454   4.04477
    R4        1.85076   0.00881   0.00000   0.00149   0.00149   1.85225
    A1        1.82177  -0.00307   0.00000  -0.00871  -0.00872   1.81305
    A2        1.97302  -0.00522   0.00000  -0.00688  -0.00689   1.96613
    A3        2.48748   0.00827   0.00000   0.01592   0.01591   2.50339
    A4        1.75740  -0.00719   0.00000  -0.00567  -0.00567   1.75173
    D1        1.63730   0.00020   0.00000   0.01535   0.01535   1.65265
    D2       -1.45091   0.00117   0.00000   0.00621   0.00621  -1.44470
         Item               Value     Threshold  Converged?
 Maximum Force            0.023162     0.000450     NO 
 RMS     Force            0.009877     0.000300     NO 
 Maximum Displacement     0.021283     0.001800     NO 
 RMS     Displacement     0.010877     0.001200     NO 
 Predicted change in Energy=-4.416301D-04
 Optimization stopped.
    -- Number of steps exceeded,  NStep=  20
    -- Flag reset to prevent archiving.
                           ----------------------------
                           ! Non-Optimized Parameters !
                           ! (Angstroms and Degrees)  !
 --------------------------                            --------------------------
 ! Name  Definition              Value          Derivative Info.                !
 --------------------------------------------------------------------------------
 ! R1    R(1,2)                  0.9816         -DE/DX =    0.0089              !
 ! R2    R(1,3)                  1.7            -DE/DX =    0.0232              !
 ! R3    R(1,5)                  2.1404         -DE/DX =    0.0112              !
 ! R4    R(3,4)                  0.9802         -DE/DX =    0.0088              !
 ! A1    A(2,1,3)              103.8802         -DE/DX =   -0.0031              !
 ! A2    A(2,1,5)              112.651          -DE/DX =   -0.0052              !
 ! A3    A(3,1,5)              143.4337         -DE/DX =    0.0083              !
 ! A4    A(1,3,4)              100.3668         -DE/DX =   -0.0072              !
 ! D1    D(2,1,3,4)             94.6898         -DE/DX =    0.0002              !
 ! D2    D(5,1,3,4)            -82.7755         -DE/DX =    0.0012              !
 --------------------------------------------------------------------------------
 GradGradGradGradGradGradGradGradGradGradGradGradGradGradGradGradGradGrad

                          Input orientation:                          
 ---------------------------------------------------------------------
 Center     Atomic      Atomic             Coordinates (Angstroms)
 Number     Number       Type             X           Y           Z
 ---------------------------------------------------------------------
      1          8           0       -1.226334    0.692263    0.086264
      2          1           0       -1.699115    0.761899   -0.770249
      3          8           0        0.418794    0.679613   -0.339557
      4          1           0        0.634724    1.631471   -0.258742
      5         53           0       -2.539836    0.681412    1.766454
 ---------------------------------------------------------------------
                    Distance matrix (angstroms):
                    1          2          3          4          5
     1  O    0.000000
     2  H    0.980809   0.000000
     3  O    1.699390   2.162823   0.000000
     4  H    2.112978   2.542557   0.979383   0.000000
     5  I    2.132709   2.673603   3.631636   3.883538   0.000000
 Stoichiometry    H2IO2(2)
 Framework group  C1[X(H2IO2)]
 Deg. of freedom     9
 Full point group                 C1      NOp   1
 Largest Abelian subgroup         C1      NOp   1
 Largest concise Abelian subgroup C1      NOp   1
                         Standard orientation:                         
 ---------------------------------------------------------------------
 Center     Atomic      Atomic             Coordinates (Angstroms)
 Number     Number       Type             X           Y           Z
 ---------------------------------------------------------------------
      1          8           0        1.353854    0.427922   -0.001913
      2          1           0        1.534319    1.380491    0.146510
      3          8           0        2.894240   -0.280725   -0.115743
      4          1           0        3.033861   -0.561975    0.811940
      5         53           0       -0.727414   -0.037662   -0.000325
 ---------------------------------------------------------------------
 Rotational constants (GHZ):     67.7918076      2.1008864      2.0518365

 **********************************************************************

            Population analysis using the SCF density.

 **********************************************************************

 Orbital symmetries:
 Alpha Orbitals:
       Occupied  (A) (A) (A) (A) (A) (A) (A) (A) (A) (A) (A) (A)
                 (A)
       Virtual   (A) (A) (A) (A) (A) (A) (A) (A) (A) (A) (A) (A)
                 (A) (A) (A) (A) (A)
 Beta  Orbitals:
       Occupied  (A) (A) (A) (A) (A) (A) (A) (A) (A) (A) (A) (A)
       Virtual   (A) (A) (A) (A) (A) (A) (A) (A) (A) (A) (A) (A)
                 (A) (A) (A) (A) (A) (A)
 The electronic state is 2-A.
 Alpha  occ. eigenvalues --  -19.71521 -19.67142  -1.18914  -1.07623  -0.74419
 Alpha  occ. eigenvalues --   -0.60162  -0.55437  -0.51011  -0.43646  -0.40228
 Alpha  occ. eigenvalues --   -0.32142  -0.30605  -0.28574
 Alpha virt. eigenvalues --   -0.04277   0.15448   0.19024   0.41086   0.42667
 Alpha virt. eigenvalues --    0.42975   0.65755   0.68181   0.69819   0.79366
 Alpha virt. eigenvalues --    0.81607   0.93649   0.99287   1.04922   1.39922
 Alpha virt. eigenvalues --    1.70924   9.33044
  Beta  occ. eigenvalues --  -19.71120 -19.66141  -1.17349  -1.04497  -0.73696
  Beta  occ. eigenvalues --   -0.57207  -0.53810  -0.48024  -0.42635  -0.37462
  Beta  occ. eigenvalues --   -0.30978  -0.30087
  Beta virt. eigenvalues --   -0.09725   0.01657   0.15442   0.19339   0.40677
  Beta virt. eigenvalues --    0.42679   0.42990   0.66704   0.69304   0.71323
  Beta virt. eigenvalues --    0.80914   0.82324   0.93972   0.99769   1.05057
  Beta virt. eigenvalues --    1.41448   1.71980   9.32475
          Condensed to atoms (all electrons):
              1          2          3          4          5
     1  O    8.544150   0.250462  -0.092467  -0.014223  -0.047705
     2  H    0.250462   0.277151  -0.009086  -0.000369  -0.008681
     3  O   -0.092467  -0.009086   8.334093   0.256487   0.023503
     4  H   -0.014223  -0.000369   0.256487   0.328027  -0.001107
     5  I   -0.047705  -0.008681   0.023503  -0.001107   6.802948
 Mulliken atomic charges:
              1
     1  O   -0.640218
     2  H    0.490522
     3  O   -0.512530
     4  H    0.431185
     5  I    0.231041
 Sum of Mulliken atomic charges =   0.00000
 Mulliken charges with hydrogens summed into heavy atoms:
              1
     1  O   -0.149696
     3  O   -0.081346
     5  I    0.231041
 Sum of Mulliken charges with hydrogens summed into heavy atoms =   0.00000
          Atomic-Atomic Spin Densities.
              1          2          3          4          5
     1  O    0.194241  -0.007914  -0.173119   0.008069  -0.073659
     2  H   -0.007914   0.008667   0.006083  -0.000185   0.007998
     3  O   -0.173119   0.006083   0.753265  -0.010274   0.027505
     4  H    0.008069  -0.000185  -0.010274  -0.014026  -0.001271
     5  I   -0.073659   0.007998   0.027505  -0.001271   0.491386
 Mulliken atomic spin densities:
              1
     1  O   -0.052382
     2  H    0.014650
     3  O    0.603460
     4  H   -0.017687
     5  I    0.451960
 Sum of Mulliken atomic spin densities =   1.00000
 Electronic spatial extent (au):  <R**2>=            433.7946
 Charge=              0.0000 electrons
 Dipole moment (field-independent basis, Debye):
    X=             -1.0012    Y=              1.8750    Z=              2.7709  Tot=              3.4923
 Quadrupole moment (field-independent basis, Debye-Ang):
   XX=            -32.1042   YY=            -28.7805   ZZ=            -32.3999
   XY=              2.8842   XZ=              7.8388   YZ=             -0.7349
 Traceless Quadrupole moment (field-independent basis, Debye-Ang):
   XX=             -1.0093   YY=              2.3143   ZZ=             -1.3050
   XY=              2.8842   XZ=              7.8388   YZ=             -0.7349
 Octapole moment (field-independent basis, Debye-Ang**2):
  XXX=            -48.3133  YYY=              5.6987  ZZZ=              2.4499  XYY=             -4.1156
  XXY=             -1.5842  XXZ=             23.1756  XZZ=             -7.1706  YZZ=             -1.0190
  YYZ=              1.9331  XYZ=             -3.1281
 Hexadecapole moment (field-independent basis, Debye-Ang**3):
 XXXX=           -488.1313 YYYY=            -51.7696 ZZZZ=            -49.1143 XXXY=             -5.2977
 XXXZ=             71.2631 YYYX=             13.2086 YYYZ=              0.2490 ZZZX=              7.2868
 ZZZY=             -1.0450 XXYY=            -78.8061 XXZZ=            -78.3045 YYZZ=            -18.0753
 XXYZ=            -10.6278 YYXZ=              4.6261 ZZXY=             -1.1394
 N-N= 5.713331795664D+01 E-N=-7.362821422298D+02  KE= 2.297545882243D+02
                          Isotropic Fermi Contact Couplings
        Atom                 a.u.       MegaHertz       Gauss      10(-4) cm-1
     1  O(17)              0.89760    -544.11879    -194.15511    -181.49849
     2  H(1)               0.00728      32.52447      11.60554      10.84900
     3  O(17)              0.14997     -90.91296     -32.44000     -30.32530
     4  H(1)              -0.00974     -43.52254     -15.52992     -14.51756
     5  I(127)             0.00000      -0.00106      -0.00038      -0.00035
 --------------------------------------------------------
       Center         ----  Spin Dipole Couplings  ----
                      3XX-RR        3YY-RR        3ZZ-RR
 --------------------------------------------------------
     1   Atom       -0.719829      0.559429      0.160401
     2   Atom        0.005570     -0.002671     -0.002900
     3   Atom        2.036434     -0.963303     -1.073131
     4   Atom       -0.030827     -0.059746      0.090573
     5   Atom        0.061138     -0.032009     -0.029129
 --------------------------------------------------------
                        XY            XZ            YZ
 --------------------------------------------------------
     1   Atom        0.061787      0.085905     -0.014547
     2   Atom       -0.011911     -0.001342     -0.000871
     3   Atom       -0.836398     -0.451299      0.126121
     4   Atom       -0.017575      0.017676     -0.047061
     5   Atom       -0.000593     -0.001269     -0.000272
 --------------------------------------------------------


 ---------------------------------------------------------------------------------
              Anisotropic Spin Dipole Couplings in Principal Axis System
 ---------------------------------------------------------------------------------

       Atom             a.u.   MegaHertz   Gauss  10(-4) cm-1        Axes

              Baa    -0.7312    52.909    18.879    17.649  0.9941 -0.0487 -0.0966
     1 O(17)  Bbb     0.1685   -12.194    -4.351    -4.068  0.0977  0.0216  0.9950
              Bcc     0.5627   -40.715   -14.528   -13.581  0.0464  0.9986 -0.0262
 
              Baa    -0.0114    -6.090    -2.173    -2.031  0.5747  0.8000  0.1724
     2 H(1)   Bbb    -0.0027    -1.419    -0.506    -0.473 -0.0718 -0.1605  0.9844
              Bcc     0.0141     7.509     2.679     2.505  0.8152 -0.5781 -0.0348
 
              Baa    -1.1823    85.554    30.528    28.538  0.2229  0.9572 -0.1844
     3 O(17)  Bbb    -1.1363    82.218    29.338    27.425  0.1770  0.1463  0.9733
              Bcc     2.3186  -167.772   -59.865   -55.963  0.9586 -0.2496 -0.1368
 
              Baa    -0.0766   -40.875   -14.585   -13.634  0.2681  0.9344  0.2347
     4 H(1)   Bbb    -0.0309   -16.513    -5.892    -5.508  0.9506 -0.2169 -0.2223
              Bcc     0.1076    57.388    20.478    19.143  0.1568 -0.2827  0.9463
 
              Baa    -0.0320    -3.444    -1.229    -1.149  0.0076  0.9953  0.0962
     5 I(127) Bbb    -0.0291    -3.130    -1.117    -1.044  0.0134 -0.0963  0.9953
              Bcc     0.0612     6.574     2.346     2.193  0.9999 -0.0063 -0.0140
 

 ---------------------------------------------------------------------------------



 LAW OF COMPENSATION:
      NO CALCULATION IS EVER A COMPLETE FAILURE; IT 
      CAN ALWAYS SERVE AS A BAD EXAMPLE.

                                           -- ANON
 Error termination request processed by link 9999.
 Error termination via Lnk1e in C:\G09W\l9999.exe at Tue Feb 02 05:16:07 2021.
 Job cpu time:  0 days  0 hours  2 minutes 23.0 seconds.
 File lengths (MBytes):  RWF=     18 Int=      0 D2E=      0 Chk=      2 Scr=      1
