 Entering Link 1 = C:\G09W\l1.exe PID=      5868.
  
 Copyright (c) 1988,1990,1992,1993,1995,1998,2003,2009, Gaussian, Inc.
                  All Rights Reserved.
  
 This is part of the Gaussian(R) 09 program.  It is based on
 the Gaussian(R) 03 system (copyright 2003, Gaussian, Inc.),
 the Gaussian(R) 98 system (copyright 1998, Gaussian, Inc.),
 the Gaussian(R) 94 system (copyright 1995, Gaussian, Inc.),
 the Gaussian 92(TM) system (copyright 1992, Gaussian, Inc.),
 the Gaussian 90(TM) system (copyright 1990, Gaussian, Inc.),
 the Gaussian 88(TM) system (copyright 1988, Gaussian, Inc.),
 the Gaussian 86(TM) system (copyright 1986, Carnegie Mellon
 University), and the Gaussian 82(TM) system (copyright 1983,
 Carnegie Mellon University). Gaussian is a federally registered
 trademark of Gaussian, Inc.
  
 This software contains proprietary and confidential information,
 including trade secrets, belonging to Gaussian, Inc.
  
 This software is provided under written license and may be
 used, copied, transmitted, or stored only in accord with that
 written license.
  
 The following legend is applicable only to US Government
 contracts under FAR:
  
                    RESTRICTED RIGHTS LEGEND
  
 Use, reproduction and disclosure by the US Government is
 subject to restrictions as set forth in subparagraphs (a)
 and (c) of the Commercial Computer Software - Restricted
 Rights clause in FAR 52.227-19.
  
 Gaussian, Inc.
 340 Quinnipiac St., Bldg. 40, Wallingford CT 06492
  
  
 ---------------------------------------------------------------
 Warning -- This program may not be used in any manner that
 competes with the business of Gaussian, Inc. or will provide
 assistance to any competitor of Gaussian, Inc.  The licensee
 of this program is prohibited from giving any competitor of
 Gaussian, Inc. access to this program.  By using this program,
 the user acknowledges that Gaussian, Inc. is engaged in the
 business of creating and licensing software in the field of
 computational chemistry and represents and warrants to the
 licensee that it is not a competitor of Gaussian, Inc. and that
 it will not use this program in any manner prohibited above.
 ---------------------------------------------------------------
  

 Cite this work as:
 Gaussian 09, Revision A.02,
 M. J. Frisch, G. W. Trucks, H. B. Schlegel, G. E. Scuseria, 
 M. A. Robb, J. R. Cheeseman, G. Scalmani, V. Barone, B. Mennucci, 
 G. A. Petersson, H. Nakatsuji, M. Caricato, X. Li, H. P. Hratchian, 
 A. F. Izmaylov, J. Bloino, G. Zheng, J. L. Sonnenberg, M. Hada, 
 M. Ehara, K. Toyota, R. Fukuda, J. Hasegawa, M. Ishida, T. Nakajima, 
 Y. Honda, O. Kitao, H. Nakai, T. Vreven, J. A. Montgomery, Jr., 
 J. E. Peralta, F. Ogliaro, M. Bearpark, J. J. Heyd, E. Brothers, 
 K. N. Kudin, V. N. Staroverov, R. Kobayashi, J. Normand, 
 K. Raghavachari, A. Rendell, J. C. Burant, S. S. Iyengar, J. Tomasi, 
 M. Cossi, N. Rega, J. M. Millam, M. Klene, J. E. Knox, J. B. Cross, 
 V. Bakken, C. Adamo, J. Jaramillo, R. Gomperts, R. E. Stratmann, 
 O. Yazyev, A. J. Austin, R. Cammi, C. Pomelli, J. W. Ochterski, 
 R. L. Martin, K. Morokuma, V. G. Zakrzewski, G. A. Voth, 
 P. Salvador, J. J. Dannenberg, S. Dapprich, A. D. Daniels, 
 O. Farkas, J. B. Foresman, J. V. Ortiz, J. Cioslowski, 
 and D. J. Fox, Gaussian, Inc., Wallingford CT, 2009.
 
 ******************************************
 Gaussian 09:  IA32W-G09RevA.02 11-Jun-2009
                20-Jan-2021 
 ******************************************
 %chk=D:\Documents\rayGit\FQ\quimicaComputacional\p5Fenol\reactivos\peroxidoRadic
 alM062x.chk
 %mem=1500mb
 %nproc=4
 Will use up to    4 processors via shared memory.
 -------------------------------------
 # opt freq scrf=smd 6-31+G(d,p) m062x
 -------------------------------------
 1/14=-1,18=20,19=15,26=3,38=1/1,3;
 2/9=110,12=2,17=6,18=5,40=1/2;
 3/5=1,6=6,7=111,11=2,16=1,25=1,30=1,70=32201,71=1,72=1,74=-55/1,2,3;
 4//1;
 5/5=2,38=5/2;
 6/7=2,8=2,9=2,10=2,28=1/1;
 7//1,2,3,16;
 1/14=-1,18=20,19=15/3(2);
 2/9=110/2;
 99//99;
 2/9=110/2;
 3/5=1,6=6,7=111,11=2,16=1,25=1,30=1,70=32205,71=1,74=-55/1,2,3;
 4/5=5,16=3/1;
 5/5=2,38=5/2;
 7//1,2,3,16;
 1/14=-1,18=20,19=15/3(-5);
 2/9=110/2;
 6/7=2,8=2,9=2,10=2,19=2,28=1/1;
 99/9=1/99;
 ----------------------
 peroxido radical m062x
 ----------------------
 Symbolic Z-matrix:
 Charge =  0 Multiplicity = 2
 O                    -1.421     0.62284   0. 
 H                    -1.74145   1.26273  -0.63989 
 O                    -0.101     0.62284   0. 
 

 GradGradGradGradGradGradGradGradGradGradGradGradGradGradGradGradGradGrad
 Berny optimization.
 Initialization pass.
                           ----------------------------
                           !    Initial Parameters    !
                           ! (Angstroms and Degrees)  !
 --------------------------                            --------------------------
 ! Name  Definition              Value          Derivative Info.                !
 --------------------------------------------------------------------------------
 ! R1    R(1,2)                  0.96           estimate D2E/DX2                !
 ! R2    R(1,3)                  1.32           estimate D2E/DX2                !
 ! A1    A(2,1,3)              109.5            estimate D2E/DX2                !
 --------------------------------------------------------------------------------
 Trust Radius=3.00D-01 FncErr=1.00D-07 GrdErr=1.00D-06
 Number of steps in this run=  20 maximum allowed number of steps= 100.
 GradGradGradGradGradGradGradGradGradGradGradGradGradGradGradGradGradGrad

                          Input orientation:                          
 ---------------------------------------------------------------------
 Center     Atomic      Atomic             Coordinates (Angstroms)
 Number     Number       Type             X           Y           Z
 ---------------------------------------------------------------------
      1          8           0       -1.420998    0.622842    0.000000
      2          1           0       -1.741453    1.262728   -0.639886
      3          8           0       -0.100998    0.622842    0.000000
 ---------------------------------------------------------------------
                    Distance matrix (angstroms):
                    1          2          3
     1  O    0.000000
     2  H    0.960000   0.000000
     3  O    1.320000   1.873499   0.000000
 Stoichiometry    HO2(2)
 Framework group  CS[SG(HO2)]
 Deg. of freedom     3
 Full point group                 CS      NOp   2
 Largest Abelian subgroup         CS      NOp   2
 Largest concise Abelian subgroup C1      NOp   1
                         Standard orientation:                         
 ---------------------------------------------------------------------
 Center     Atomic      Atomic             Coordinates (Angstroms)
 Number     Number       Type             X           Y           Z
 ---------------------------------------------------------------------
      1          8           0        0.053232   -0.602326    0.000000
      2          1           0       -0.851704   -0.922781    0.000000
      3          8           0        0.053232    0.717674    0.000000
 ---------------------------------------------------------------------
 Rotational constants (GHZ):    676.6215479     33.8562775     32.2429301
 Standard basis: 6-31+G(d,p) (6D, 7F)
 There are    32 symmetry adapted basis functions of A'  symmetry.
 There are    11 symmetry adapted basis functions of A"  symmetry.
 Integral buffers will be    262144 words long.
 Raffenetti 2 integral format.
 Two-electron integral symmetry is turned on.
    43 basis functions,    71 primitive gaussians,    43 cartesian basis functions
     9 alpha electrons        8 beta electrons
       nuclear repulsion energy        32.3265179760 Hartrees.
 NAtoms=    3 NActive=    3 NUniq=    3 SFac= 7.50D-01 NAtFMM=   80 NAOKFM=F Big=F
 ------------------------------------------------------------------------------
 Polarizable Continuum Model (PCM)
 =================================
 Model                : PCM.
 Atomic radii         : SMD-Coulomb.
 Polarization charges : Total charges.
 Charge compensation  : None.
 Solution method      : Matrix inversion.
 Cavity type          : VdW (van der Waals Surface) (Alpha=1.000).
 Cavity algorithm     : GePol (No added spheres)
                        Default sphere list used, NSphG=    3.
                        Lebedev-Laikov grids with approx.  5.0 points / Ang**2.
                        Smoothing algorithm: Karplus/York (Gamma=1.0000).
                        Polarization charges: spherical gaussians, with
                                              point-specific exponents (IZeta= 3).
                        Self-potential: point-specific (ISelfS= 7).
                        Self-field    : sphere-specific E.n sum rule (ISelfD= 2).
 1st derivatives      : Analytical E(r).r(x)/FMM algorithm (CHGder, D1EAlg=3).
                        Cavity 1st derivative terms included.
 Solvent              : Water, Eps=  78.355300 Eps(inf)=   1.777849
 ------------------------------------------------------------------------------
 Spheres list:
 ISph  on   Nord    Re0     Alpha      Xe            Ye            Ze
    1   O      1    1.520   1.000      0.053232     -0.602326      0.000000
    2   H      2    1.200   1.000     -0.851704     -0.922781      0.000000
    3   O      3    1.520   1.000      0.053232      0.717674      0.000000
 ------------------------------------------------------------------------------
 ------------------------------------------------------------------------------
 Atomic radii for non-electrostatic terms: SMD-CDS.
 ------------------------------------------------------------------------------
 Nuclear repulsion after PCM non-electrostatic terms =       32.3276125011 Hartrees.
 One-electron integrals computed using PRISM.
 NBasis=    43 RedAO= T  NBF=    32    11
 NBsUse=    43 1.00D-06 NBFU=    32    11
 Harris functional with IExCor= 1009 diagonalized for initial guess.
 ExpMin= 8.45D-02 ExpMax= 5.48D+03 ExpMxC= 8.25D+02 IAcc=2 IRadAn=         0 AccDes= 0.00D+00
 HarFok:  IExCor= 1009 AccDes= 0.00D+00 IRadAn=         0 IDoV= 1
 ScaDFX=  1.000000  1.000000  1.000000  1.000000
 FoFCou: FMM=F IPFlag=           0 FMFlag=      100000 FMFlg1=           0
         NFxFlg=           0 DoJE=T BraDBF=F KetDBF=T FulRan=T
         Omega=  0.000000  0.000000  1.000000  0.000000  0.000000 ICntrl=     500 IOpCl=  0
         NMat0=    1 NMatS0=    1 NMatT0=    0 NMatD0=    1 NMtDS0=    0 NMtDT0=    0
         I1Cent=           4 NGrid=           0.
 Petite list used in FoFCou.
 Initial guess orbital symmetries:
 Alpha Orbitals:
       Occupied  (A') (A') (A') (A') (A') (A') (A") (A') (A")
       Virtual   (A') (A') (A') (A") (A') (A') (A') (A") (A') (A')
                 (A') (A') (A') (A") (A') (A") (A') (A') (A") (A')
                 (A") (A') (A') (A") (A') (A') (A') (A") (A") (A')
                 (A') (A') (A') (A')
 Beta  Orbitals:
       Occupied  (A') (A') (A') (A') (A') (A') (A") (A')
       Virtual   (A") (A') (A') (A') (A") (A') (A') (A') (A") (A')
                 (A') (A') (A') (A') (A") (A') (A") (A') (A') (A")
                 (A') (A") (A') (A') (A") (A') (A') (A') (A") (A")
                 (A') (A') (A') (A') (A')
 The electronic state of the initial guess is 2-A".
 Initial guess <Sx>= 0.0000 <Sy>= 0.0000 <Sz>= 0.5000 <S**2>= 0.7500 S= 0.5000
 Requested convergence on RMS density matrix=1.00D-08 within 128 cycles.
 Requested convergence on MAX density matrix=1.00D-06.
 Requested convergence on             energy=1.00D-06.
 No special actions if energy rises.
 Keep R1 and R2 ints in memory in canonical form, NReq=3885499.
 Error on total polarization charges =  0.02597
 SCF Done:  E(UM062X) =  -150.857670084     A.U. after   13 cycles
             Convg  =    0.9059D-08             -V/T =  2.0082
 <Sx>= 0.0000 <Sy>= 0.0000 <Sz>= 0.5000 <S**2>= 0.7550 S= 0.5025
 <L.S>= 0.000000000000E+00
 SMD-CDS (non-electrostatic) energy             (kcal/mol) =       0.69
 (included in total energy above)
 Annihilation of the first spin contaminant:
 S**2 before annihilation     0.7550,   after     0.7500

 **********************************************************************

            Population analysis using the SCF density.

 **********************************************************************

 Orbital symmetries:
 Alpha Orbitals:
       Occupied  (A') (A') (A') (A') (A') (A") (A') (A') (A")
       Virtual   (A') (A') (A') (A") (A') (A') (A") (A') (A') (A')
                 (A') (A') (A") (A') (A') (A") (A') (A') (A") (A')
                 (A") (A') (A') (A") (A') (A') (A') (A") (A") (A')
                 (A') (A') (A') (A')
 Beta  Orbitals:
       Occupied  (A') (A') (A') (A') (A') (A') (A") (A')
       Virtual   (A") (A') (A') (A') (A") (A') (A') (A") (A') (A')
                 (A') (A') (A') (A') (A") (A') (A') (A") (A') (A")
                 (A') (A") (A') (A') (A") (A') (A') (A') (A") (A")
                 (A') (A') (A') (A') (A')
 The electronic state is 2-A".
 Alpha  occ. eigenvalues --  -19.77068 -19.74326  -1.33991  -0.99754  -0.65702
 Alpha  occ. eigenvalues --   -0.59481  -0.57326  -0.39297  -0.39046
 Alpha virt. eigenvalues --    0.08004   0.10246   0.14872   0.15804   0.20708
 Alpha virt. eigenvalues --    0.21568   0.22488   0.23607   0.29272   0.34970
 Alpha virt. eigenvalues --    1.00290   1.06527   1.11912   1.12897   1.17571
 Alpha virt. eigenvalues --    1.19294   1.22891   1.26777   1.48993   1.51522
 Alpha virt. eigenvalues --    1.57397   1.63281   1.81474   1.85612   2.19152
 Alpha virt. eigenvalues --    2.25434   2.50434   2.51051   2.67036   2.94326
 Alpha virt. eigenvalues --    3.03261   3.41702   3.73962   4.15643
  Beta  occ. eigenvalues --  -19.76242 -19.72838  -1.30636  -0.94970  -0.63652
  Beta  occ. eigenvalues --   -0.55072  -0.49069  -0.36538
  Beta virt. eigenvalues --   -0.07615   0.08495   0.10440   0.15356   0.16527
  Beta virt. eigenvalues --    0.20900   0.21934   0.22990   0.25625   0.29549
  Beta virt. eigenvalues --    0.34723   1.00934   1.06933   1.13777   1.16563
  Beta virt. eigenvalues --    1.18305   1.23663   1.24596   1.27414   1.50972
  Beta virt. eigenvalues --    1.52286   1.59334   1.63837   1.85110   1.88696
  Beta virt. eigenvalues --    2.19730   2.26756   2.51097   2.53191   2.67440
  Beta virt. eigenvalues --    2.94540   3.03993   3.41900   3.75894   4.16476
          Condensed to atoms (all electrons):
              1          2          3
     1  O    7.800958   0.269914   0.186377
     2  H    0.269914   0.315279  -0.034691
     3  O    0.186377  -0.034691   8.040563
 Mulliken atomic charges:
              1
     1  O   -0.257249
     2  H    0.449498
     3  O   -0.192249
 Sum of Mulliken atomic charges =   0.00000
 Mulliken charges with hydrogens summed into heavy atoms:
              1
     1  O    0.192249
     3  O   -0.192249
 Sum of Mulliken charges with hydrogens summed into heavy atoms =   0.00000
          Atomic-Atomic Spin Densities.
              1          2          3
     1  O    0.445840  -0.001260  -0.147057
     2  H   -0.001260  -0.011155   0.001895
     3  O   -0.147057   0.001895   0.858158
 Mulliken atomic spin densities:
              1
     1  O    0.297523
     2  H   -0.010520
     3  O    0.712996
 Sum of Mulliken atomic spin densities =   1.00000
 Electronic spatial extent (au):  <R**2>=             54.6429
 Charge=              0.0000 electrons
 Dipole moment (field-independent basis, Debye):
    X=             -2.2405    Y=             -2.0760    Z=              0.0000  Tot=              3.0544
 Quadrupole moment (field-independent basis, Debye-Ang):
   XX=            -10.0064   YY=            -10.8189   ZZ=            -11.1472
   XY=              2.1252   XZ=              0.0000   YZ=              0.0000
 Traceless Quadrupole moment (field-independent basis, Debye-Ang):
   XX=              0.6511   YY=             -0.1614   ZZ=             -0.4897
   XY=              2.1252   XZ=              0.0000   YZ=              0.0000
 Octapole moment (field-independent basis, Debye-Ang**2):
  XXX=             -2.8314  YYY=             -3.1749  ZZZ=              0.0000  XYY=             -2.4490
  XXY=             -2.5445  XXZ=              0.0000  XZZ=             -0.3926  YZZ=             -0.1750
  YYZ=              0.0000  XYZ=              0.0000
 Hexadecapole moment (field-independent basis, Debye-Ang**3):
 XXXX=             -9.3108 YYYY=            -36.7727 ZZZZ=             -8.5691 XXXY=              0.8413
 XXXZ=              0.0000 YYYX=              1.4238 YYYZ=              0.0000 ZZZX=              0.0000
 ZZZY=              0.0000 XXYY=             -7.5609 XXZZ=             -3.2364 YYZZ=             -8.1268
 XXYZ=              0.0000 YYXZ=              0.0000 ZZXY=             -0.1601
 N-N= 3.232761250108D+01 E-N=-6.244477654680D+02  KE= 2.227936123127D+02
 Symmetry A'   KE= 2.135013024708D+02
 Symmetry A"   KE= 9.292309841925D+00
                          Isotropic Fermi Contact Couplings
        Atom                 a.u.       MegaHertz       Gauss      10(-4) cm-1
     1  O(17)              0.07482     -45.35351     -16.18326     -15.12830
     2  H(1)              -0.00661     -29.53916     -10.54031      -9.85320
     3  O(17)              0.14423     -87.43459     -31.19883     -29.16504
 --------------------------------------------------------
       Center         ----  Spin Dipole Couplings  ----
                      3XX-RR        3YY-RR        3ZZ-RR
 --------------------------------------------------------
     1   Atom       -0.717629     -0.785447      1.503075
     2   Atom        0.050150     -0.023270     -0.026879
     3   Atom       -1.402430     -1.444880      2.847311
 --------------------------------------------------------
                        XY            XZ            YZ
 --------------------------------------------------------
     1   Atom        0.025255      0.000000      0.000000
     2   Atom        0.049091      0.000000      0.000000
     3   Atom       -0.007921      0.000000      0.000000
 --------------------------------------------------------


 ---------------------------------------------------------------------------------
              Anisotropic Spin Dipole Couplings in Principal Axis System
 ---------------------------------------------------------------------------------

       Atom             a.u.   MegaHertz   Gauss  10(-4) cm-1        Axes

              Baa    -0.7938    57.440    20.496    19.160 -0.3146  0.9492  0.0000
     1 O(17)  Bbb    -0.7093    51.321    18.313    17.119  0.9492  0.3146  0.0000
              Bcc     1.5031  -108.761   -38.809   -36.279  0.0000  0.0000  1.0000
 
              Baa    -0.0479   -25.536    -9.112    -8.518 -0.4478  0.8941  0.0000
     2 H(1)   Bbb    -0.0269   -14.342    -5.117    -4.784  0.0000  0.0000  1.0000
              Bcc     0.0747    39.877    14.229    13.302  0.8941  0.4478  0.0000
 
              Baa    -1.4463   104.654    37.343    34.909  0.1776  0.9841  0.0000
     3 O(17)  Bbb    -1.4010   101.375    36.173    33.815  0.9841 -0.1776  0.0000
              Bcc     2.8473  -206.029   -73.516   -68.724  0.0000  0.0000  1.0000
 

 ---------------------------------------------------------------------------------

 D1PCM: PCM CHGder 1st derivatives, ID1Alg=3 FixD1E=F DoIter=F DoCFld=F I1PDM=0.
 Calling FoFJK, ICntrl=      2127 FMM=F ISym2X=1 I1Cent= 0 IOpClX= 1 NMat=1 NMatS=1 NMatT=0.
 ***** Axes restored to original set *****
 -------------------------------------------------------------------
 Center     Atomic                   Forces (Hartrees/Bohr)
 Number     Number              X              Y              Z
 -------------------------------------------------------------------
      1        8           0.015625878   -0.018574408    0.018574408
      2        1           0.000055655    0.014972323   -0.014972323
      3        8          -0.015681534    0.003602085   -0.003602085
 -------------------------------------------------------------------
 Cartesian Forces:  Max     0.018574408 RMS     0.013558064

 GradGradGradGradGradGradGradGradGradGradGradGradGradGradGradGradGradGrad
 Berny optimization.
 Internal  Forces:  Max     0.019918509 RMS     0.016401403
 Search for a local minimum.
 Step number   1 out of a maximum of   20
 All quantities printed in internal units (Hartrees-Bohrs-Radians)
 Mixed Optimization -- RFO/linear search
 Second derivative matrix not updated -- first step.
 The second derivative matrix:
                          R1        R2        A1
           R1           0.55473
           R2           0.00000   0.61931
           A1           0.00000   0.00000   0.16000
     Eigenvalues ---    0.16000   0.55473   0.61931
 RFO step:  Lambda=-2.12431476D-03 EMin= 1.60000000D-01
 Linear search not attempted -- first point.
 Iteration  1 RMS(Cart)=  0.05226066 RMS(Int)=  0.00137774
 Iteration  2 RMS(Cart)=  0.00136562 RMS(Int)=  0.00000029
 Iteration  3 RMS(Cart)=  0.00000029 RMS(Int)=  0.00000000
 ClnCor:  largest displacement from symmetrization is 6.28D-16 for atom     2.
 Variable       Old X    -DE/DX   Delta X   Delta X   Delta X     New X
                                 (Linear)    (Quad)   (Total)
    R1        1.81414   0.01992   0.00000   0.03577   0.03577   1.84991
    R2        2.49444  -0.01567   0.00000  -0.02521  -0.02521   2.46923
    A1        1.91114  -0.01284   0.00000  -0.07920  -0.07920   1.83194
         Item               Value     Threshold  Converged?
 Maximum Force            0.019919     0.000450     NO 
 RMS     Force            0.016401     0.000300     NO 
 Maximum Displacement     0.052349     0.001800     NO 
 RMS     Displacement     0.053011     0.001200     NO 
 Predicted change in Energy=-1.070853D-03
 GradGradGradGradGradGradGradGradGradGradGradGradGradGradGradGradGradGrad

                          Input orientation:                          
 ---------------------------------------------------------------------
 Center     Atomic      Atomic             Coordinates (Angstroms)
 Number     Number       Type             X           Y           Z
 ---------------------------------------------------------------------
      1          8           0       -1.427772    0.604592    0.018250
      2          1           0       -1.713751    1.266603   -0.643761
      3          8           0       -0.121927    0.637218   -0.014376
 ---------------------------------------------------------------------
                    Distance matrix (angstroms):
                    1          2          3
     1  O    0.000000
     2  H    0.978928   0.000000
     3  O    1.306661   1.823775   0.000000
 Stoichiometry    HO2(2)
 Framework group  CS[SG(HO2)]
 Deg. of freedom     3
 Full point group                 CS      NOp   2
 Largest Abelian subgroup         CS      NOp   2
 Largest concise Abelian subgroup C1      NOp   1
                         Standard orientation:                         
 ---------------------------------------------------------------------
 Center     Atomic      Atomic             Coordinates (Angstroms)
 Number     Number       Type             X           Y           Z
 ---------------------------------------------------------------------
      1          8           0        0.055632   -0.600032    0.000000
      2          1           0       -0.890108   -0.852773    0.000000
      3          8           0        0.055632    0.706629    0.000000
 ---------------------------------------------------------------------
 Rotational constants (GHZ):    614.4589735     34.8343062     32.9654606
 Standard basis: 6-31+G(d,p) (6D, 7F)
 There are    32 symmetry adapted basis functions of A'  symmetry.
 There are    11 symmetry adapted basis functions of A"  symmetry.
 Integral buffers will be    262144 words long.
 Raffenetti 2 integral format.
 Two-electron integral symmetry is turned on.
    43 basis functions,    71 primitive gaussians,    43 cartesian basis functions
     9 alpha electrons        8 beta electrons
       nuclear repulsion energy        32.5647875285 Hartrees.
 NAtoms=    3 NActive=    3 NUniq=    3 SFac= 7.50D-01 NAtFMM=   80 NAOKFM=F Big=F
 ------------------------------------------------------------------------------
 Polarizable Continuum Model (PCM)
 =================================
 Model                : PCM.
 Atomic radii         : SMD-Coulomb.
 Polarization charges : Total charges.
 Charge compensation  : None.
 Solution method      : Matrix inversion.
 Cavity type          : VdW (van der Waals Surface) (Alpha=1.000).
 Cavity algorithm     : GePol (No added spheres)
                        Default sphere list used, NSphG=    3.
                        Lebedev-Laikov grids with approx.  5.0 points / Ang**2.
                        Smoothing algorithm: Karplus/York (Gamma=1.0000).
                        Polarization charges: spherical gaussians, with
                                              point-specific exponents (IZeta= 3).
                        Self-potential: point-specific (ISelfS= 7).
                        Self-field    : sphere-specific E.n sum rule (ISelfD= 2).
 1st derivatives      : Analytical E(r).r(x)/FMM algorithm (CHGder, D1EAlg=3).
                        Cavity 1st derivative terms included.
 Solvent              : Water, Eps=  78.355300 Eps(inf)=   1.777849
 ------------------------------------------------------------------------------
 Spheres list:
 ISph  on   Nord    Re0     Alpha      Xe            Ye            Ze
    1   O      1    1.520   1.000      0.055632     -0.600032      0.000000
    2   H      2    1.200   1.000     -0.890108     -0.852773      0.000000
    3   O      3    1.520   1.000      0.055632      0.706629      0.000000
 ------------------------------------------------------------------------------
 ------------------------------------------------------------------------------
 Atomic radii for non-electrostatic terms: SMD-CDS.
 ------------------------------------------------------------------------------
 Nuclear repulsion after PCM non-electrostatic terms =       32.5658657910 Hartrees.
 One-electron integrals computed using PRISM.
 NBasis=    43 RedAO= T  NBF=    32    11
 NBsUse=    43 1.00D-06 NBFU=    32    11
 Initial guess read from the read-write file.
 B after Tr=     0.000000    0.000000    0.000000
         Rot=    1.000000    0.000000    0.000000    0.000000 Ang=   0.00 deg.
 Initial guess orbital symmetries:
 Alpha Orbitals:
       Occupied  (A') (A') (A') (A') (A') (A") (A') (A') (A")
       Virtual   (A') (A') (A') (A") (A') (A') (A") (A') (A') (A')
                 (A') (A') (A") (A') (A') (A") (A') (A') (A") (A')
                 (A") (A') (A') (A") (A') (A') (A') (A") (A") (A')
                 (A') (A') (A') (A')
 Beta  Orbitals:
       Occupied  (A') (A') (A') (A') (A') (A') (A") (A')
       Virtual   (A") (A') (A') (A') (A") (A') (A') (A") (A') (A')
                 (A') (A') (A') (A') (A") (A') (A') (A") (A') (A")
                 (A') (A") (A') (A') (A") (A') (A') (A') (A") (A")
                 (A') (A') (A') (A') (A')
 Initial guess <Sx>= 0.0000 <Sy>= 0.0000 <Sz>= 0.5000 <S**2>= 0.7550 S= 0.5025
 Harris functional with IExCor= 1009 diagonalized for initial guess.
 ExpMin= 8.45D-02 ExpMax= 5.48D+03 ExpMxC= 8.25D+02 IAcc=2 IRadAn=         0 AccDes= 0.00D+00
 HarFok:  IExCor= 1009 AccDes= 0.00D+00 IRadAn=         0 IDoV= 1
 ScaDFX=  1.000000  1.000000  1.000000  1.000000
 FoFCou: FMM=F IPFlag=           0 FMFlag=      100000 FMFlg1=           0
         NFxFlg=           0 DoJE=T BraDBF=F KetDBF=T FulRan=T
         Omega=  0.000000  0.000000  1.000000  0.000000  0.000000 ICntrl=     500 IOpCl=  0
         NMat0=    1 NMatS0=    1 NMatT0=    0 NMatD0=    1 NMtDS0=    0 NMtDT0=    0
         I1Cent=           4 NGrid=           0.
 Petite list used in FoFCou.
 Requested convergence on RMS density matrix=1.00D-08 within 128 cycles.
 Requested convergence on MAX density matrix=1.00D-06.
 Requested convergence on             energy=1.00D-06.
 No special actions if energy rises.
 Keep R1 and R2 ints in memory in canonical form, NReq=3884815.
 Error on total polarization charges =  0.02585
 SCF Done:  E(UM062X) =  -150.858413887     A.U. after   11 cycles
             Convg  =    0.8036D-08             -V/T =  2.0081
 <Sx>= 0.0000 <Sy>= 0.0000 <Sz>= 0.5000 <S**2>= 0.7549 S= 0.5024
 <L.S>= 0.000000000000E+00
 SMD-CDS (non-electrostatic) energy             (kcal/mol) =       0.68
 (included in total energy above)
 Annihilation of the first spin contaminant:
 S**2 before annihilation     0.7549,   after     0.7500
 D1PCM: PCM CHGder 1st derivatives, ID1Alg=3 FixD1E=F DoIter=F DoCFld=F I1PDM=0.
 Calling FoFJK, ICntrl=      2127 FMM=F ISym2X=1 I1Cent= 0 IOpClX= 1 NMat=1 NMatS=1 NMatT=0.
 ***** Axes restored to original set *****
 -------------------------------------------------------------------
 Center     Atomic                   Forces (Hartrees/Bohr)
 Number     Number              X              Y              Z
 -------------------------------------------------------------------
      1        8           0.001578802    0.002492745   -0.002492745
      2        1          -0.004526120   -0.000279687    0.000279687
      3        8           0.002947319   -0.002213058    0.002213058
 -------------------------------------------------------------------
 Cartesian Forces:  Max     0.004526120 RMS     0.002450495

 GradGradGradGradGradGradGradGradGradGradGradGradGradGradGradGradGradGrad
 Berny optimization.
 Using GEDIIS/GDIIS optimizer.
 Internal  Forces:  Max     0.008130960 RMS     0.004999275
 Search for a local minimum.
 Step number   2 out of a maximum of   20
 All quantities printed in internal units (Hartrees-Bohrs-Radians)
 Mixed Optimization -- RFO/linear search
 Update second derivatives using D2CorX and points    1    2
 DE= -7.44D-04 DEPred=-1.07D-03 R= 6.95D-01
 SS=  1.41D+00  RLast= 9.05D-02 DXNew= 5.0454D-01 2.7146D-01
 Trust test= 6.95D-01 RLast= 9.05D-02 DXMaxT set to 3.00D-01
 The second derivative matrix:
                          R1        R2        A1
           R1           0.49587
           R2           0.02217   0.62541
           A1          -0.02234   0.04429   0.24060
 Use linear search instead of GDIIS.
     Eigenvalues ---    0.23324   0.49540   0.63324
 RFO step:  Lambda=-1.14738213D-04 EMin= 2.33236216D-01
 Quartic linear search produced a step of -0.23416.
 Iteration  1 RMS(Cart)=  0.02239678 RMS(Int)=  0.00025351
 Iteration  2 RMS(Cart)=  0.00019717 RMS(Int)=  0.00000000
 Iteration  3 RMS(Cart)=  0.00000000 RMS(Int)=  0.00000000
 ClnCor:  largest displacement from symmetrization is 1.73D-15 for atom     2.
 Variable       Old X    -DE/DX   Delta X   Delta X   Delta X     New X
                                 (Linear)    (Quad)   (Total)
    R1        1.84991   0.00097  -0.00838   0.01193   0.00355   1.85346
    R2        2.46923   0.00281   0.00590  -0.00397   0.00194   2.47117
    A1        1.83194   0.00813   0.01855   0.01427   0.03282   1.86475
         Item               Value     Threshold  Converged?
 Maximum Force            0.008131     0.000450     NO 
 RMS     Force            0.004999     0.000300     NO 
 Maximum Displacement     0.026020     0.001800     NO 
 RMS     Displacement     0.022324     0.001200     NO 
 Predicted change in Energy=-1.415111D-04
 GradGradGradGradGradGradGradGradGradGradGradGradGradGradGradGradGradGrad

                          Input orientation:                          
 ---------------------------------------------------------------------
 Center     Atomic      Atomic             Coordinates (Angstroms)
 Number     Number       Type             X           Y           Z
 ---------------------------------------------------------------------
      1          8           0       -1.421631    0.609336    0.013506
      2          1           0       -1.727520    1.268281   -0.645440
      3          8           0       -0.114298    0.630795   -0.007953
 ---------------------------------------------------------------------
                    Distance matrix (angstroms):
                    1          2          3
     1  O    0.000000
     2  H    0.980809   0.000000
     3  O    1.307685   1.848043   0.000000
 Stoichiometry    HO2(2)
 Framework group  CS[SG(HO2)]
 Deg. of freedom     3
 Full point group                 CS      NOp   2
 Largest Abelian subgroup         CS      NOp   2
 Largest concise Abelian subgroup C1      NOp   1
                         Standard orientation:                         
 ---------------------------------------------------------------------
 Center     Atomic      Atomic             Coordinates (Angstroms)
 Number     Number       Type             X           Y           Z
 ---------------------------------------------------------------------
      1          8           0        0.055220   -0.598665    0.000000
      2          1           0       -0.883518   -0.882845    0.000000
      3          8           0        0.055220    0.709020    0.000000
 ---------------------------------------------------------------------
 Rotational constants (GHZ):    626.1801366     34.6397394     32.8239472
 Standard basis: 6-31+G(d,p) (6D, 7F)
 There are    32 symmetry adapted basis functions of A'  symmetry.
 There are    11 symmetry adapted basis functions of A"  symmetry.
 Integral buffers will be    262144 words long.
 Raffenetti 2 integral format.
 Two-electron integral symmetry is turned on.
    43 basis functions,    71 primitive gaussians,    43 cartesian basis functions
     9 alpha electrons        8 beta electrons
       nuclear repulsion energy        32.5057102075 Hartrees.
 NAtoms=    3 NActive=    3 NUniq=    3 SFac= 7.50D-01 NAtFMM=   80 NAOKFM=F Big=F
 ------------------------------------------------------------------------------
 Polarizable Continuum Model (PCM)
 =================================
 Model                : PCM.
 Atomic radii         : SMD-Coulomb.
 Polarization charges : Total charges.
 Charge compensation  : None.
 Solution method      : Matrix inversion.
 Cavity type          : VdW (van der Waals Surface) (Alpha=1.000).
 Cavity algorithm     : GePol (No added spheres)
                        Default sphere list used, NSphG=    3.
                        Lebedev-Laikov grids with approx.  5.0 points / Ang**2.
                        Smoothing algorithm: Karplus/York (Gamma=1.0000).
                        Polarization charges: spherical gaussians, with
                                              point-specific exponents (IZeta= 3).
                        Self-potential: point-specific (ISelfS= 7).
                        Self-field    : sphere-specific E.n sum rule (ISelfD= 2).
 1st derivatives      : Analytical E(r).r(x)/FMM algorithm (CHGder, D1EAlg=3).
                        Cavity 1st derivative terms included.
 Solvent              : Water, Eps=  78.355300 Eps(inf)=   1.777849
 ------------------------------------------------------------------------------
 Spheres list:
 ISph  on   Nord    Re0     Alpha      Xe            Ye            Ze
    1   O      1    1.520   1.000      0.055220     -0.598665      0.000000
    2   H      2    1.200   1.000     -0.883518     -0.882845      0.000000
    3   O      3    1.520   1.000      0.055220      0.709020      0.000000
 ------------------------------------------------------------------------------
 ------------------------------------------------------------------------------
 Atomic radii for non-electrostatic terms: SMD-CDS.
 ------------------------------------------------------------------------------
 Nuclear repulsion after PCM non-electrostatic terms =       32.5068019158 Hartrees.
 One-electron integrals computed using PRISM.
 NBasis=    43 RedAO= T  NBF=    32    11
 NBsUse=    43 1.00D-06 NBFU=    32    11
 Initial guess read from the read-write file.
 B after Tr=     0.000000    0.000000    0.000000
         Rot=    1.000000    0.000000    0.000000    0.000000 Ang=   0.00 deg.
 Initial guess orbital symmetries:
 Alpha Orbitals:
       Occupied  (A') (A') (A') (A') (A') (A") (A') (A') (A")
       Virtual   (A') (A') (A') (A") (A') (A') (A") (A') (A') (A')
                 (A') (A') (A") (A') (A') (A") (A') (A') (A") (A')
                 (A") (A') (A') (A") (A') (A') (A') (A") (A") (A')
                 (A') (A') (A') (A')
 Beta  Orbitals:
       Occupied  (A') (A') (A') (A') (A') (A') (A") (A')
       Virtual   (A") (A') (A') (A') (A") (A') (A') (A") (A') (A')
                 (A') (A') (A') (A') (A") (A') (A') (A") (A') (A')
                 (A") (A") (A') (A') (A") (A') (A') (A') (A") (A")
                 (A') (A') (A') (A') (A')
 Initial guess <Sx>= 0.0000 <Sy>= 0.0000 <Sz>= 0.5000 <S**2>= 0.7549 S= 0.5025
 Harris functional with IExCor= 1009 diagonalized for initial guess.
 ExpMin= 8.45D-02 ExpMax= 5.48D+03 ExpMxC= 8.25D+02 IAcc=2 IRadAn=         0 AccDes= 0.00D+00
 HarFok:  IExCor= 1009 AccDes= 0.00D+00 IRadAn=         0 IDoV= 1
 ScaDFX=  1.000000  1.000000  1.000000  1.000000
 FoFCou: FMM=F IPFlag=           0 FMFlag=      100000 FMFlg1=           0
         NFxFlg=           0 DoJE=T BraDBF=F KetDBF=T FulRan=T
         Omega=  0.000000  0.000000  1.000000  0.000000  0.000000 ICntrl=     500 IOpCl=  0
         NMat0=    1 NMatS0=    1 NMatT0=    0 NMatD0=    1 NMtDS0=    0 NMtDT0=    0
         I1Cent=           4 NGrid=           0.
 Petite list used in FoFCou.
 Requested convergence on RMS density matrix=1.00D-08 within 128 cycles.
 Requested convergence on MAX density matrix=1.00D-06.
 Requested convergence on             energy=1.00D-06.
 No special actions if energy rises.
 Keep R1 and R2 ints in memory in canonical form, NReq=3885499.
 Error on total polarization charges =  0.02592
 SCF Done:  E(UM062X) =  -150.858546951     A.U. after   11 cycles
             Convg  =    0.2471D-08             -V/T =  2.0082
 <Sx>= 0.0000 <Sy>= 0.0000 <Sz>= 0.5000 <S**2>= 0.7549 S= 0.5025
 <L.S>= 0.000000000000E+00
 SMD-CDS (non-electrostatic) energy             (kcal/mol) =       0.69
 (included in total energy above)
 Annihilation of the first spin contaminant:
 S**2 before annihilation     0.7549,   after     0.7500
 D1PCM: PCM CHGder 1st derivatives, ID1Alg=3 FixD1E=F DoIter=F DoCFld=F I1PDM=0.
 Calling FoFJK, ICntrl=      2127 FMM=F ISym2X=1 I1Cent= 0 IOpClX= 1 NMat=1 NMatS=1 NMatT=0.
 ***** Axes restored to original set *****
 -------------------------------------------------------------------
 Center     Atomic                   Forces (Hartrees/Bohr)
 Number     Number              X              Y              Z
 -------------------------------------------------------------------
      1        8           0.000628434    0.000330099   -0.000330099
      2        1           0.000289272   -0.000397563    0.000397563
      3        8          -0.000917706    0.000067464   -0.000067464
 -------------------------------------------------------------------
 Cartesian Forces:  Max     0.000917706 RMS     0.000455087

 GradGradGradGradGradGradGradGradGradGradGradGradGradGradGradGradGradGrad
 Berny optimization.
 Using GEDIIS/GDIIS optimizer.
 Internal  Forces:  Max     0.000923726 RMS     0.000652985
 Search for a local minimum.
 Step number   3 out of a maximum of   20
 All quantities printed in internal units (Hartrees-Bohrs-Radians)
 Mixed Optimization -- En-DIIS/RFO-DIIS
 Update second derivatives using D2CorX and points    1    2    3
 DE= -1.33D-04 DEPred=-1.42D-04 R= 9.40D-01
 SS=  1.41D+00  RLast= 3.31D-02 DXNew= 5.0454D-01 9.9196D-02
 Trust test= 9.40D-01 RLast= 3.31D-02 DXMaxT set to 3.00D-01
 The second derivative matrix:
                          R1        R2        A1
           R1           0.51496
           R2           0.03717   0.63635
           A1          -0.00970   0.07236   0.25136
 Use linear search instead of GDIIS.
     Eigenvalues ---    0.23726   0.50739   0.65802
 RFO step:  Lambda=-1.58547273D-06 EMin= 2.37259499D-01
 Quartic linear search produced a step of -0.03872.
 Iteration  1 RMS(Cart)=  0.00107688 RMS(Int)=  0.00000019
 Iteration  2 RMS(Cart)=  0.00000018 RMS(Int)=  0.00000000
 ClnCor:  largest displacement from symmetrization is 6.66D-16 for atom     2.
 Variable       Old X    -DE/DX   Delta X   Delta X   Delta X     New X
                                 (Linear)    (Quad)   (Total)
    R1        1.85346  -0.00061  -0.00014  -0.00097  -0.00110   1.85236
    R2        2.47117  -0.00092  -0.00007  -0.00125  -0.00133   2.46984
    A1        1.86475  -0.00022  -0.00127   0.00074  -0.00053   1.86422
         Item               Value     Threshold  Converged?
 Maximum Force            0.000924     0.000450     NO 
 RMS     Force            0.000653     0.000300     NO 
 Maximum Displacement     0.001206     0.001800     YES
 RMS     Displacement     0.001077     0.001200     YES
 Predicted change in Energy=-1.012068D-06
 GradGradGradGradGradGradGradGradGradGradGradGradGradGradGradGradGradGrad

                          Input orientation:                          
 ---------------------------------------------------------------------
 Center     Atomic      Atomic             Coordinates (Angstroms)
 Number     Number       Type             X           Y           Z
 ---------------------------------------------------------------------
      1          8           0       -1.421562    0.609388    0.013454
      2          1           0       -1.726951    1.268015   -0.645173
      3          8           0       -0.114937    0.631009   -0.008167
 ---------------------------------------------------------------------
                    Distance matrix (angstroms):
                    1          2          3
     1  O    0.000000
     2  H    0.980225   0.000000
     3  O    1.306983   1.846658   0.000000
 Stoichiometry    HO2(2)
 Framework group  CS[SG(HO2)]
 Deg. of freedom     3
 Full point group                 CS      NOp   2
 Largest Abelian subgroup         CS      NOp   2
 Largest concise Abelian subgroup C1      NOp   1
                         Standard orientation:                         
 ---------------------------------------------------------------------
 Center     Atomic      Atomic             Coordinates (Angstroms)
 Number     Number       Type             X           Y           Z
 ---------------------------------------------------------------------
      1          8           0        0.055196   -0.598373    0.000000
      2          1           0       -0.883133   -0.881889    0.000000
      3          8           0        0.055196    0.708610    0.000000
 ---------------------------------------------------------------------
 Rotational constants (GHZ):    626.6843205     34.6792941     32.8608490
 Standard basis: 6-31+G(d,p) (6D, 7F)
 There are    32 symmetry adapted basis functions of A'  symmetry.
 There are    11 symmetry adapted basis functions of A"  symmetry.
 Integral buffers will be    262144 words long.
 Raffenetti 2 integral format.
 Two-electron integral symmetry is turned on.
    43 basis functions,    71 primitive gaussians,    43 cartesian basis functions
     9 alpha electrons        8 beta electrons
       nuclear repulsion energy        32.5239102156 Hartrees.
 NAtoms=    3 NActive=    3 NUniq=    3 SFac= 7.50D-01 NAtFMM=   80 NAOKFM=F Big=F
 ------------------------------------------------------------------------------
 Polarizable Continuum Model (PCM)
 =================================
 Model                : PCM.
 Atomic radii         : SMD-Coulomb.
 Polarization charges : Total charges.
 Charge compensation  : None.
 Solution method      : Matrix inversion.
 Cavity type          : VdW (van der Waals Surface) (Alpha=1.000).
 Cavity algorithm     : GePol (No added spheres)
                        Default sphere list used, NSphG=    3.
                        Lebedev-Laikov grids with approx.  5.0 points / Ang**2.
                        Smoothing algorithm: Karplus/York (Gamma=1.0000).
                        Polarization charges: spherical gaussians, with
                                              point-specific exponents (IZeta= 3).
                        Self-potential: point-specific (ISelfS= 7).
                        Self-field    : sphere-specific E.n sum rule (ISelfD= 2).
 1st derivatives      : Analytical E(r).r(x)/FMM algorithm (CHGder, D1EAlg=3).
                        Cavity 1st derivative terms included.
 Solvent              : Water, Eps=  78.355300 Eps(inf)=   1.777849
 ------------------------------------------------------------------------------
 Spheres list:
 ISph  on   Nord    Re0     Alpha      Xe            Ye            Ze
    1   O      1    1.520   1.000      0.055196     -0.598373      0.000000
    2   H      2    1.200   1.000     -0.883133     -0.881889      0.000000
    3   O      3    1.520   1.000      0.055196      0.708610      0.000000
 ------------------------------------------------------------------------------
 ------------------------------------------------------------------------------
 Atomic radii for non-electrostatic terms: SMD-CDS.
 ------------------------------------------------------------------------------
 Nuclear repulsion after PCM non-electrostatic terms =       32.5250012636 Hartrees.
 One-electron integrals computed using PRISM.
 NBasis=    43 RedAO= T  NBF=    32    11
 NBsUse=    43 1.00D-06 NBFU=    32    11
 Initial guess read from the read-write file.
 B after Tr=     0.000000    0.000000    0.000000
         Rot=    1.000000    0.000000    0.000000    0.000000 Ang=   0.00 deg.
 Initial guess orbital symmetries:
 Alpha Orbitals:
       Occupied  (A') (A') (A') (A') (A') (A") (A') (A') (A")
       Virtual   (A') (A') (A') (A") (A') (A') (A") (A') (A') (A')
                 (A') (A') (A") (A') (A') (A") (A') (A') (A") (A')
                 (A") (A') (A') (A") (A') (A') (A') (A") (A") (A')
                 (A') (A') (A') (A')
 Beta  Orbitals:
       Occupied  (A') (A') (A') (A') (A') (A') (A") (A')
       Virtual   (A") (A') (A') (A') (A") (A') (A') (A") (A') (A')
                 (A') (A') (A') (A') (A") (A') (A') (A") (A') (A")
                 (A') (A") (A') (A') (A") (A') (A') (A') (A") (A")
                 (A') (A') (A') (A') (A')
 Initial guess <Sx>= 0.0000 <Sy>= 0.0000 <Sz>= 0.5000 <S**2>= 0.7549 S= 0.5025
 Requested convergence on RMS density matrix=1.00D-08 within 128 cycles.
 Requested convergence on MAX density matrix=1.00D-06.
 Requested convergence on             energy=1.00D-06.
 No special actions if energy rises.
 Keep R1 and R2 ints in memory in canonical form, NReq=3885499.
 Error on total polarization charges =  0.02592
 SCF Done:  E(UM062X) =  -150.858548081     A.U. after    9 cycles
             Convg  =    0.6255D-08             -V/T =  2.0082
 <Sx>= 0.0000 <Sy>= 0.0000 <Sz>= 0.5000 <S**2>= 0.7549 S= 0.5025
 <L.S>= 0.000000000000E+00
 SMD-CDS (non-electrostatic) energy             (kcal/mol) =       0.68
 (included in total energy above)
 Annihilation of the first spin contaminant:
 S**2 before annihilation     0.7549,   after     0.7500
 D1PCM: PCM CHGder 1st derivatives, ID1Alg=3 FixD1E=F DoIter=F DoCFld=F I1PDM=0.
 Calling FoFJK, ICntrl=      2127 FMM=F ISym2X=1 I1Cent= 0 IOpClX= 1 NMat=1 NMatS=1 NMatT=0.
 ***** Axes restored to original set *****
 -------------------------------------------------------------------
 Center     Atomic                   Forces (Hartrees/Bohr)
 Number     Number              X              Y              Z
 -------------------------------------------------------------------
      1        8           0.000144440    0.000042744   -0.000042744
      2        1           0.000003369   -0.000054743    0.000054743
      3        8          -0.000147808    0.000011999   -0.000011999
 -------------------------------------------------------------------
 Cartesian Forces:  Max     0.000147808 RMS     0.000076490

 GradGradGradGradGradGradGradGradGradGradGradGradGradGradGradGradGradGrad
 Berny optimization.
 Using GEDIIS/GDIIS optimizer.
 Internal  Forces:  Max     0.000154656 RMS     0.000096879
 Search for a local minimum.
 Step number   4 out of a maximum of   20
 All quantities printed in internal units (Hartrees-Bohrs-Radians)
 Mixed Optimization -- En-DIIS/RFO-DIIS
 Swaping is turned off.
 Update second derivatives using D2CorX and points    1    2    3    4
 DE= -1.13D-06 DEPred=-1.01D-06 R= 1.12D+00
 SS=  1.41D+00  RLast= 1.80D-03 DXNew= 5.0454D-01 5.4133D-03
 Trust test= 1.12D+00 RLast= 1.80D-03 DXMaxT set to 3.00D-01
 The second derivative matrix:
                          R1        R2        A1
           R1           0.50336
           R2          -0.00181   0.55020
           A1          -0.00924   0.07804   0.25668
     Eigenvalues ---    0.23695   0.50339   0.56990
 En-DIIS/RFO-DIIS IScMMF=        0 using points:     4    3
 RFO step:  Lambda=-3.89564940D-08.
 DIIS coeffs:      1.15699     -0.15699
 Iteration  1 RMS(Cart)=  0.00014028 RMS(Int)=  0.00000001
 Iteration  2 RMS(Cart)=  0.00000001 RMS(Int)=  0.00000000
 ClnCor:  largest displacement from symmetrization is 9.93D-16 for atom     2.
 Variable       Old X    -DE/DX   Delta X   Delta X   Delta X     New X
                                  (DIIS)     (GDIIS)  (Total)
    R1        1.85236  -0.00006  -0.00017   0.00005  -0.00013   1.85223
    R2        2.46984  -0.00015  -0.00021  -0.00009  -0.00030   2.46954
    A1        1.86422   0.00001  -0.00008   0.00019   0.00011   1.86433
         Item               Value     Threshold  Converged?
 Maximum Force            0.000155     0.000450     YES
 RMS     Force            0.000097     0.000300     YES
 Maximum Displacement     0.000165     0.001800     YES
 RMS     Displacement     0.000140     0.001200     YES
 Predicted change in Energy=-2.735151D-08
 Optimization completed.
    -- Stationary point found.
                           ----------------------------
                           !   Optimized Parameters   !
                           ! (Angstroms and Degrees)  !
 --------------------------                            --------------------------
 ! Name  Definition              Value          Derivative Info.                !
 --------------------------------------------------------------------------------
 ! R1    R(1,2)                  0.9802         -DE/DX =   -0.0001              !
 ! R2    R(1,3)                  1.307          -DE/DX =   -0.0002              !
 ! A1    A(2,1,3)              106.8122         -DE/DX =    0.0                 !
 --------------------------------------------------------------------------------
 GradGradGradGradGradGradGradGradGradGradGradGradGradGradGradGradGradGrad

                          Input orientation:                          
 ---------------------------------------------------------------------
 Center     Atomic      Atomic             Coordinates (Angstroms)
 Number     Number       Type             X           Y           Z
 ---------------------------------------------------------------------
      1          8           0       -1.421562    0.609388    0.013454
      2          1           0       -1.726951    1.268015   -0.645173
      3          8           0       -0.114937    0.631009   -0.008167
 ---------------------------------------------------------------------
                    Distance matrix (angstroms):
                    1          2          3
     1  O    0.000000
     2  H    0.980225   0.000000
     3  O    1.306983   1.846658   0.000000
 Stoichiometry    HO2(2)
 Framework group  CS[SG(HO2)]
 Deg. of freedom     3
 Full point group                 CS      NOp   2
 Largest Abelian subgroup         CS      NOp   2
 Largest concise Abelian subgroup C1      NOp   1
                         Standard orientation:                         
 ---------------------------------------------------------------------
 Center     Atomic      Atomic             Coordinates (Angstroms)
 Number     Number       Type             X           Y           Z
 ---------------------------------------------------------------------
      1          8           0        0.055196   -0.598373    0.000000
      2          1           0       -0.883133   -0.881889    0.000000
      3          8           0        0.055196    0.708610    0.000000
 ---------------------------------------------------------------------
 Rotational constants (GHZ):    626.6843205     34.6792941     32.8608490

 **********************************************************************

            Population analysis using the SCF density.

 **********************************************************************

 Orbital symmetries:
 Alpha Orbitals:
       Occupied  (A') (A') (A') (A') (A') (A") (A') (A') (A")
       Virtual   (A') (A') (A') (A") (A') (A') (A") (A') (A') (A')
                 (A') (A') (A") (A') (A') (A") (A') (A') (A") (A')
                 (A") (A') (A') (A") (A') (A') (A') (A") (A") (A')
                 (A') (A') (A') (A')
 Beta  Orbitals:
       Occupied  (A') (A') (A') (A') (A') (A') (A") (A')
       Virtual   (A") (A') (A') (A') (A") (A') (A') (A") (A') (A')
                 (A') (A') (A') (A') (A") (A') (A') (A") (A') (A")
                 (A') (A") (A') (A') (A") (A') (A') (A') (A") (A")
                 (A') (A') (A') (A') (A')
 The electronic state is 2-A".
 Alpha  occ. eigenvalues --  -19.77310 -19.73903  -1.34712  -0.98873  -0.65597
 Alpha  occ. eigenvalues --   -0.59804  -0.57656  -0.38944  -0.38631
 Alpha virt. eigenvalues --    0.08221   0.10293   0.14739   0.15776   0.20489
 Alpha virt. eigenvalues --    0.21599   0.22527   0.24851   0.28414   0.34962
 Alpha virt. eigenvalues --    0.98486   1.06453   1.12001   1.13717   1.17208
 Alpha virt. eigenvalues --    1.19338   1.22198   1.27281   1.49306   1.50565
 Alpha virt. eigenvalues --    1.56686   1.63594   1.81470   1.85878   2.21192
 Alpha virt. eigenvalues --    2.27849   2.48026   2.52945   2.64610   2.92345
 Alpha virt. eigenvalues --    3.02585   3.38836   3.73589   4.15489
  Beta  occ. eigenvalues --  -19.76464 -19.72427  -1.31354  -0.94088  -0.63601
  Beta  occ. eigenvalues --   -0.55336  -0.49405  -0.36213
  Beta virt. eigenvalues --   -0.07215   0.08651   0.10488   0.15201   0.16460
  Beta virt. eigenvalues --    0.20672   0.21965   0.23034   0.26942   0.28660
  Beta virt. eigenvalues --    0.34701   0.99156   1.06873   1.14643   1.16599
  Beta virt. eigenvalues --    1.17902   1.22982   1.24703   1.27912   1.51183
  Beta virt. eigenvalues --    1.51277   1.58779   1.64156   1.85073   1.88931
  Beta virt. eigenvalues --    2.21757   2.29111   2.48786   2.55105   2.64997
  Beta virt. eigenvalues --    2.92575   3.03312   3.38993   3.75489   4.16322
          Condensed to atoms (all electrons):
              1          2          3
     1  O    7.793779   0.268052   0.184560
     2  H    0.268052   0.319812  -0.039493
     3  O    0.184560  -0.039493   8.060171
 Mulliken atomic charges:
              1
     1  O   -0.246390
     2  H    0.451629
     3  O   -0.205238
 Sum of Mulliken atomic charges =   0.00000
 Mulliken charges with hydrogens summed into heavy atoms:
              1
     1  O    0.205238
     3  O   -0.205238
 Sum of Mulliken charges with hydrogens summed into heavy atoms =   0.00000
          Atomic-Atomic Spin Densities.
              1          2          3
     1  O    0.460845  -0.001479  -0.152924
     2  H   -0.001479  -0.011828   0.002198
     3  O   -0.152924   0.002198   0.855394
 Mulliken atomic spin densities:
              1
     1  O    0.306441
     2  H   -0.011109
     3  O    0.704667
 Sum of Mulliken atomic spin densities =   1.00000
 Electronic spatial extent (au):  <R**2>=             54.1366
 Charge=              0.0000 electrons
 Dipole moment (field-independent basis, Debye):
    X=             -2.2938    Y=             -2.0534    Z=              0.0000  Tot=              3.0787
 Quadrupole moment (field-independent basis, Debye-Ang):
   XX=             -9.8582   YY=            -11.0422   ZZ=            -11.1465
   XY=              2.0606   XZ=              0.0000   YZ=              0.0000
 Traceless Quadrupole moment (field-independent basis, Debye-Ang):
   XX=              0.8241   YY=             -0.3599   ZZ=             -0.4642
   XY=              2.0606   XZ=              0.0000   YZ=              0.0000
 Octapole moment (field-independent basis, Debye-Ang**2):
  XXX=             -3.0238  YYY=             -2.9430  ZZZ=              0.0000  XYY=             -2.3388
  XXY=             -2.5864  XXZ=              0.0000  XZZ=             -0.3909  YZZ=             -0.1837
  YYZ=              0.0000  XYZ=              0.0000
 Hexadecapole moment (field-independent basis, Debye-Ang**3):
 XXXX=             -9.1948 YYYY=            -36.5911 ZZZZ=             -8.5571 XXXY=              0.8695
 XXXZ=              0.0000 YYYX=              1.1625 YYYZ=              0.0000 ZZZX=              0.0000
 ZZZY=              0.0000 XXYY=             -7.5278 XXZZ=             -3.2558 YYZZ=             -8.0380
 XXYZ=              0.0000 YYXZ=              0.0000 ZZXY=             -0.1794
 N-N= 3.252500126362D+01 E-N=-6.250430625814D+02  KE= 2.227972312819D+02
 Symmetry A'   KE= 2.134988047417D+02
 Symmetry A"   KE= 9.298426540198D+00
                          Isotropic Fermi Contact Couplings
        Atom                 a.u.       MegaHertz       Gauss      10(-4) cm-1
     1  O(17)              0.07619     -46.18568     -16.48020     -15.40588
     2  H(1)              -0.00678     -30.28833     -10.80763     -10.10310
     3  O(17)              0.14389     -87.22780     -31.12505     -29.09606
 --------------------------------------------------------
       Center         ----  Spin Dipole Couplings  ----
                      3XX-RR        3YY-RR        3ZZ-RR
 --------------------------------------------------------
     1   Atom       -0.732449     -0.799070      1.531518
     2   Atom        0.053522     -0.025208     -0.028315
     3   Atom       -1.387935     -1.435602      2.823537
 --------------------------------------------------------
                        XY            XZ            YZ
 --------------------------------------------------------
     1   Atom        0.023018      0.000000      0.000000
     2   Atom        0.044578      0.000000      0.000000
     3   Atom       -0.007104      0.000000      0.000000
 --------------------------------------------------------


 ---------------------------------------------------------------------------------
              Anisotropic Spin Dipole Couplings in Principal Axis System
 ---------------------------------------------------------------------------------

       Atom             a.u.   MegaHertz   Gauss  10(-4) cm-1        Axes

              Baa    -0.8062    58.340    20.817    19.460 -0.2977  0.9546  0.0000
     1 O(17)  Bbb    -0.7253    52.480    18.726    17.505  0.9546  0.2977  0.0000
              Bcc     1.5315  -110.820   -39.543   -36.965  0.0000  0.0000  1.0000
 
              Baa    -0.0453   -24.177    -8.627    -8.065 -0.4111  0.9116  0.0000
     2 H(1)   Bbb    -0.0283   -15.107    -5.391    -5.039  0.0000  0.0000  1.0000
              Bcc     0.0736    39.284    14.018    13.104  0.9116  0.4111  0.0000
 
              Baa    -1.4366   103.954    37.093    34.675  0.1443  0.9895  0.0000
     3 O(17)  Bbb    -1.3869   100.355    35.809    33.475  0.9895 -0.1443  0.0000
              Bcc     2.8235  -204.309   -72.903   -68.150  0.0000  0.0000  1.0000
 

 ---------------------------------------------------------------------------------

 1|1|UNPC-DESKTOP-319GPER|FOpt|UM062X|6-31+G(d,p)|H1O2(2)|SAGAD|20-Jan-
 2021|0||# opt freq scrf=smd 6-31+G(d,p) m062x||peroxido radical m062x|
 |0,2|O,-1.4215617156,0.6093883609,0.0134535589|H,-1.7269514474,1.26801
 51397,-0.6451732097|O,-0.1149365669,0.6310085293,-0.0081666092||Versio
 n=IA32W-G09RevA.02|State=2-A"|HF=-150.8585481|S2=0.754914|S2-1=0.|S2A=
 0.750013|RMSD=6.255e-009|RMSF=7.649e-005|Dipole=-0.8287643,0.6245967,-
 0.6245967|Quadrupole=-0.1954086,0.0977043,0.0977043,-1.0966535,1.09665
 35,-0.4428581|PG=CS [SG(H1O2)]||@


 CHRISTMAS IS ON TOP OF A STEEP HILL.
 THE CLOSER YOU GET, THE STEEPER THE HILL IS.
          -- LINUS, OF PEANUTS
 Job cpu time:  0 days  0 hours  0 minutes 11.0 seconds.
 File lengths (MBytes):  RWF=      5 Int=      0 D2E=      0 Chk=      1 Scr=      1
 Normal termination of Gaussian 09 at Wed Jan 20 08:04:08 2021.
 Link1:  Proceeding to internal job step number  2.
 ----------------------------------------------------------------------
 #N Geom=AllCheck Guess=TCheck SCRF=Check GenChk UM062X/6-31+G(d,p) Fre
 q
 ----------------------------------------------------------------------
 1/10=4,29=7,30=1,38=1,40=1/1,3;
 2/12=2,40=1/2;
 3/5=1,6=6,7=111,11=2,14=-4,16=1,25=1,30=1,70=2,71=2,74=-55,116=2/1,2,3;
 4/5=101/1;
 5/5=2,98=1/2;
 8/6=4,10=90,11=11/1;
 11/6=1,8=1,9=11,15=111,16=1/1,2,10;
 10/6=1/2;
 6/7=2,8=2,9=2,10=2,18=1,28=1/1;
 7/8=1,10=1,25=1/1,2,3,16;
 1/10=4,30=1/3;
 99//99;
 ----------------------
 peroxido radical m062x
 ----------------------
 Redundant internal coordinates taken from checkpoint file:
 D:\Documents\rayGit\FQ\quimicaComputacional\p5Fenol\reactivos\peroxidoRadicalM062x.chk
 Charge =  0 Multiplicity = 2
 O,0,-1.4215617156,0.6093883609,0.0134535589
 H,0,-1.7269514474,1.2680151397,-0.6451732097
 O,0,-0.1149365669,0.6310085293,-0.0081666092
 Recover connectivity data from disk.

 GradGradGradGradGradGradGradGradGradGradGradGradGradGradGradGradGradGrad
 Berny optimization.
 Initialization pass.
                           ----------------------------
                           !    Initial Parameters    !
                           ! (Angstroms and Degrees)  !
 --------------------------                            --------------------------
 ! Name  Definition              Value          Derivative Info.                !
 --------------------------------------------------------------------------------
 ! R1    R(1,2)                  0.9802         calculate D2E/DX2 analytically  !
 ! R2    R(1,3)                  1.307          calculate D2E/DX2 analytically  !
 ! A1    A(2,1,3)              106.8122         calculate D2E/DX2 analytically  !
 --------------------------------------------------------------------------------
 Trust Radius=3.00D-01 FncErr=1.00D-07 GrdErr=1.00D-07
 Number of steps in this run=   2 maximum allowed number of steps=   2.
 GradGradGradGradGradGradGradGradGradGradGradGradGradGradGradGradGradGrad

                          Input orientation:                          
 ---------------------------------------------------------------------
 Center     Atomic      Atomic             Coordinates (Angstroms)
 Number     Number       Type             X           Y           Z
 ---------------------------------------------------------------------
      1          8           0       -1.421562    0.609388    0.013454
      2          1           0       -1.726951    1.268015   -0.645173
      3          8           0       -0.114937    0.631009   -0.008167
 ---------------------------------------------------------------------
                    Distance matrix (angstroms):
                    1          2          3
     1  O    0.000000
     2  H    0.980225   0.000000
     3  O    1.306983   1.846658   0.000000
 Stoichiometry    HO2(2)
 Framework group  CS[SG(HO2)]
 Deg. of freedom     3
 Full point group                 CS      NOp   2
 Largest Abelian subgroup         CS      NOp   2
 Largest concise Abelian subgroup C1      NOp   1
                         Standard orientation:                         
 ---------------------------------------------------------------------
 Center     Atomic      Atomic             Coordinates (Angstroms)
 Number     Number       Type             X           Y           Z
 ---------------------------------------------------------------------
      1          8           0        0.055196   -0.598373    0.000000
      2          1           0       -0.883133   -0.881889    0.000000
      3          8           0        0.055196    0.708610    0.000000
 ---------------------------------------------------------------------
 Rotational constants (GHZ):    626.6843205     34.6792941     32.8608490
 Standard basis: 6-31+G(d,p) (6D, 7F)
 There are    32 symmetry adapted basis functions of A'  symmetry.
 There are    11 symmetry adapted basis functions of A"  symmetry.
 Integral buffers will be    262144 words long.
 Raffenetti 2 integral format.
 Two-electron integral symmetry is turned on.
    43 basis functions,    71 primitive gaussians,    43 cartesian basis functions
     9 alpha electrons        8 beta electrons
       nuclear repulsion energy        32.5239102156 Hartrees.
 NAtoms=    3 NActive=    3 NUniq=    3 SFac= 7.50D-01 NAtFMM=   80 NAOKFM=F Big=F
 ------------------------------------------------------------------------------
 Polarizable Continuum Model (PCM)
 =================================
 Model                : PCM.
 Atomic radii         : SMD-Coulomb.
 Polarization charges : Total charges.
 Charge compensation  : None.
 Solution method      : Matrix inversion.
 Cavity type          : VdW (van der Waals Surface) (Alpha=1.000).
 Cavity algorithm     : GePol (No added spheres)
                        Default sphere list used, NSphG=    3.
                        Lebedev-Laikov grids with approx.  5.0 points / Ang**2.
                        Smoothing algorithm: Karplus/York (Gamma=1.0000).
                        Polarization charges: spherical gaussians, with
                                              point-specific exponents (IZeta= 3).
                        Self-potential: point-specific (ISelfS= 7).
                        Self-field    : sphere-specific E.n sum rule (ISelfD= 2).
 1st derivatives      : Analytical E(r).r(x)/FMM algorithm (CHGder, D1EAlg=3).
                        Cavity 1st derivative terms included.
 2nd derivatives      : Analytical E(r).r(xy)/FMM algorithm (CHGder, D2EAlg=3).
                        Cavity 2nd derivative terms included.
 Solvent              : Water, Eps=  78.355300 Eps(inf)=   1.777849
 ------------------------------------------------------------------------------
 Spheres list:
 ISph  on   Nord    Re0     Alpha      Xe            Ye            Ze
    1   O      1    1.520   1.000      0.055196     -0.598373      0.000000
    2   H      2    1.200   1.000     -0.883133     -0.881889      0.000000
    3   O      3    1.520   1.000      0.055196      0.708610      0.000000
 ------------------------------------------------------------------------------
 ------------------------------------------------------------------------------
 Atomic radii for non-electrostatic terms: SMD-CDS.
 ------------------------------------------------------------------------------
 Nuclear repulsion after PCM non-electrostatic terms =       32.5250012636 Hartrees.
 One-electron integrals computed using PRISM.
 NBasis=    43 RedAO= T  NBF=    32    11
 NBsUse=    43 1.00D-06 NBFU=    32    11
 Initial guess read from the checkpoint file:  D:\Documents\rayGit\FQ\quimicaComp
 utacional\p5Fenol\reactivos\peroxidoRadicalM062x.chk
 B after Tr=     0.000000    0.000000    0.000000
         Rot=    1.000000    0.000000    0.000000    0.000000 Ang=   0.00 deg.
 Initial guess orbital symmetries:
 Alpha Orbitals:
       Occupied  (A') (A') (A') (A') (A') (A") (A') (A') (A")
       Virtual   (A') (A') (A') (A") (A') (A') (A") (A') (A') (A')
                 (A') (A') (A") (A') (A') (A") (A') (A') (A") (A')
                 (A") (A') (A') (A") (A') (A') (A') (A") (A") (A')
                 (A') (A') (A') (A')
 Beta  Orbitals:
       Occupied  (A') (A') (A') (A') (A') (A') (A") (A')
       Virtual   (A") (A') (A') (A') (A") (A') (A') (A") (A') (A')
                 (A') (A') (A') (A') (A") (A') (A') (A") (A') (A")
                 (A') (A") (A') (A') (A") (A') (A') (A') (A") (A")
                 (A') (A') (A') (A') (A')
 Initial guess <Sx>= 0.0000 <Sy>= 0.0000 <Sz>= 0.5000 <S**2>= 0.7549 S= 0.5025
 Requested convergence on RMS density matrix=1.00D-08 within 128 cycles.
 Requested convergence on MAX density matrix=1.00D-06.
 Requested convergence on             energy=1.00D-06.
 No special actions if energy rises.
 Keep R1 and R2 ints in memory in canonical form, NReq=3885499.
 Error on total polarization charges =  0.02592
 SCF Done:  E(UM062X) =  -150.858548081     A.U. after    1 cycles
             Convg  =    0.6036D-09             -V/T =  2.0082
 <Sx>= 0.0000 <Sy>= 0.0000 <Sz>= 0.5000 <S**2>= 0.7549 S= 0.5025
 <L.S>= 0.000000000000E+00
 SMD-CDS (non-electrostatic) energy             (kcal/mol) =       0.68
 (included in total energy above)
 Annihilation of the first spin contaminant:
 S**2 before annihilation     0.7549,   after     0.7500
 Range of M.O.s used for correlation:     1    43
 NBasis=    43 NAE=     9 NBE=     8 NFC=     0 NFV=     0
 NROrb=     43 NOA=     9 NOB=     8 NVA=    34 NVB=    35

 **** Warning!!: The largest alpha MO coefficient is  0.17731092D+02


 **** Warning!!: The largest beta MO coefficient is  0.17793978D+02

 Symmetrizing basis deriv contribution to polar:
 IMax=3 JMax=2 DiffMx= 0.00D+00
 G2DrvN: will do     4 centers at a time, making    1 passes doing MaxLOS=2.
 Calling FoFCou, ICntrl=  3107 FMM=F I1Cent=   0 AccDes= 0.00D+00.
 FoFDir/FoFCou used for L=0 through L=2.
 G2PCM: DoFxE=T DoFxN=T DoGrad=T DoPD/DQ/DG=FFF NFrqRd=   0 IEInf=0 DoCFld=F IF1Alg=4.
 End of G2Drv Frequency-dependent properties file   721 does not exist.
 End of G2Drv Frequency-dependent properties file   722 does not exist.
          IDoAtm=111
 NEqPCM:  Using equilibrium solvation (IEInf=0, Eps=  78.3553, EpsInf=   1.7778)
          Differentiating once with respect to electric field.
                with respect to dipole field.
          Differentiating once with respect to nuclear coordinates.
          Keep R1 and R2 ints in memory in canonical form, NReq=1716688.
          There are    12 degrees of freedom in the 1st order CPHF.  IDoFFX=5.
      9 vectors produced by pass  0 Test12= 4.88D-15 8.33D-09 XBig12= 1.49D+01 2.76D+00.
 AX will form     9 AO Fock derivatives at one time.
      9 vectors produced by pass  1 Test12= 4.88D-15 8.33D-09 XBig12= 4.86D+00 7.02D-01.
      9 vectors produced by pass  2 Test12= 4.88D-15 8.33D-09 XBig12= 7.64D-01 4.82D-01.
      9 vectors produced by pass  3 Test12= 4.88D-15 8.33D-09 XBig12= 1.74D-02 2.72D-02.
      9 vectors produced by pass  4 Test12= 4.88D-15 8.33D-09 XBig12= 1.40D-04 3.10D-03.
      9 vectors produced by pass  5 Test12= 4.88D-15 8.33D-09 XBig12= 1.76D-06 3.40D-04.
      9 vectors produced by pass  6 Test12= 4.88D-15 8.33D-09 XBig12= 1.58D-08 3.47D-05.
      7 vectors produced by pass  7 Test12= 4.88D-15 8.33D-09 XBig12= 8.88D-11 2.77D-06.
      3 vectors produced by pass  8 Test12= 4.88D-15 8.33D-09 XBig12= 4.46D-13 1.84D-07.
 Inverted reduced A of dimension    73 with in-core refinement.
 Isotropic polarizability for W=    0.000000       13.54 Bohr**3.
 End of Minotr Frequency-dependent properties file   721 does not exist.
 End of Minotr Frequency-dependent properties file   722 does not exist.

 **********************************************************************

            Population analysis using the SCF density.

 **********************************************************************

 Orbital symmetries:
 Alpha Orbitals:
       Occupied  (A') (A') (A') (A') (A') (A") (A') (A') (A")
       Virtual   (A') (A') (A') (A") (A') (A') (A") (A') (A') (A')
                 (A') (A') (A") (A') (A') (A") (A') (A') (A") (A')
                 (A") (A') (A') (A") (A') (A') (A') (A") (A") (A')
                 (A') (A') (A') (A')
 Beta  Orbitals:
       Occupied  (A') (A') (A') (A') (A') (A') (A") (A')
       Virtual   (A") (A') (A') (A') (A") (A') (A') (A") (A') (A')
                 (A') (A') (A') (A') (A") (A') (A') (A") (A') (A")
                 (A') (A") (A') (A') (A") (A') (A') (A') (A") (A")
                 (A') (A') (A') (A') (A')
 The electronic state is 2-A".
 Alpha  occ. eigenvalues --  -19.77310 -19.73903  -1.34712  -0.98873  -0.65597
 Alpha  occ. eigenvalues --   -0.59804  -0.57656  -0.38944  -0.38631
 Alpha virt. eigenvalues --    0.08221   0.10293   0.14739   0.15776   0.20489
 Alpha virt. eigenvalues --    0.21599   0.22527   0.24851   0.28414   0.34962
 Alpha virt. eigenvalues --    0.98486   1.06453   1.12001   1.13717   1.17208
 Alpha virt. eigenvalues --    1.19338   1.22198   1.27281   1.49306   1.50565
 Alpha virt. eigenvalues --    1.56686   1.63594   1.81470   1.85878   2.21192
 Alpha virt. eigenvalues --    2.27849   2.48026   2.52945   2.64610   2.92345
 Alpha virt. eigenvalues --    3.02585   3.38836   3.73589   4.15489
  Beta  occ. eigenvalues --  -19.76464 -19.72427  -1.31354  -0.94088  -0.63601
  Beta  occ. eigenvalues --   -0.55336  -0.49405  -0.36213
  Beta virt. eigenvalues --   -0.07215   0.08651   0.10488   0.15201   0.16460
  Beta virt. eigenvalues --    0.20672   0.21965   0.23034   0.26942   0.28660
  Beta virt. eigenvalues --    0.34701   0.99156   1.06873   1.14643   1.16599
  Beta virt. eigenvalues --    1.17902   1.22982   1.24703   1.27912   1.51183
  Beta virt. eigenvalues --    1.51277   1.58779   1.64156   1.85073   1.88931
  Beta virt. eigenvalues --    2.21757   2.29111   2.48786   2.55105   2.64997
  Beta virt. eigenvalues --    2.92575   3.03312   3.38993   3.75489   4.16322
          Condensed to atoms (all electrons):
              1          2          3
     1  O    7.793779   0.268052   0.184560
     2  H    0.268052   0.319812  -0.039493
     3  O    0.184560  -0.039493   8.060171
 Mulliken atomic charges:
              1
     1  O   -0.246390
     2  H    0.451629
     3  O   -0.205238
 Sum of Mulliken atomic charges =   0.00000
 Mulliken charges with hydrogens summed into heavy atoms:
              1
     1  O    0.205238
     3  O   -0.205238
 Sum of Mulliken charges with hydrogens summed into heavy atoms =   0.00000
          Atomic-Atomic Spin Densities.
              1          2          3
     1  O    0.460845  -0.001479  -0.152924
     2  H   -0.001479  -0.011828   0.002198
     3  O   -0.152924   0.002198   0.855394
 Mulliken atomic spin densities:
              1
     1  O    0.306441
     2  H   -0.011109
     3  O    0.704667
 Sum of Mulliken atomic spin densities =   1.00000
 APT atomic charges:
              1
     1  O   -0.409283
     2  H    0.432711
     3  O   -0.023428
 Sum of APT charges=   0.00000
 APT Atomic charges with hydrogens summed into heavy atoms:
              1
     1  O    0.023428
     2  H    0.000000
     3  O   -0.023428
 Sum of APT charges=   0.00000
 Electronic spatial extent (au):  <R**2>=             54.1366
 Charge=              0.0000 electrons
 Dipole moment (field-independent basis, Debye):
    X=             -2.2938    Y=             -2.0534    Z=              0.0000  Tot=              3.0787
 Quadrupole moment (field-independent basis, Debye-Ang):
   XX=             -9.8582   YY=            -11.0422   ZZ=            -11.1465
   XY=              2.0606   XZ=              0.0000   YZ=              0.0000
 Traceless Quadrupole moment (field-independent basis, Debye-Ang):
   XX=              0.8241   YY=             -0.3599   ZZ=             -0.4642
   XY=              2.0606   XZ=              0.0000   YZ=              0.0000
 Octapole moment (field-independent basis, Debye-Ang**2):
  XXX=             -3.0238  YYY=             -2.9430  ZZZ=              0.0000  XYY=             -2.3388
  XXY=             -2.5864  XXZ=              0.0000  XZZ=             -0.3909  YZZ=             -0.1837
  YYZ=              0.0000  XYZ=              0.0000
 Hexadecapole moment (field-independent basis, Debye-Ang**3):
 XXXX=             -9.1948 YYYY=            -36.5911 ZZZZ=             -8.5571 XXXY=              0.8695
 XXXZ=              0.0000 YYYX=              1.1625 YYYZ=              0.0000 ZZZX=              0.0000
 ZZZY=              0.0000 XXYY=             -7.5278 XXZZ=             -3.2558 YYZZ=             -8.0380
 XXYZ=              0.0000 YYXZ=              0.0000 ZZXY=             -0.1794
 N-N= 3.252500126362D+01 E-N=-6.250430625058D+02  KE= 2.227972312421D+02
 Symmetry A'   KE= 2.134988046932D+02
 Symmetry A"   KE= 9.298426548982D+00
  Exact polarizability:  10.096   1.635  22.342   0.000   0.000   8.192
 Approx polarizability:   8.672   1.138  18.414   0.000   0.000   7.181
                          Isotropic Fermi Contact Couplings
        Atom                 a.u.       MegaHertz       Gauss      10(-4) cm-1
     1  O(17)              0.07619     -46.18568     -16.48020     -15.40588
     2  H(1)              -0.00678     -30.28836     -10.80764     -10.10311
     3  O(17)              0.14389     -87.22780     -31.12505     -29.09606
 --------------------------------------------------------
       Center         ----  Spin Dipole Couplings  ----
                      3XX-RR        3YY-RR        3ZZ-RR
 --------------------------------------------------------
     1   Atom       -0.732448     -0.799070      1.531518
     2   Atom        0.053522     -0.025208     -0.028315
     3   Atom       -1.387935     -1.435602      2.823537
 --------------------------------------------------------
                        XY            XZ            YZ
 --------------------------------------------------------
     1   Atom        0.023018      0.000000      0.000000
     2   Atom        0.044578      0.000000      0.000000
     3   Atom       -0.007104      0.000000      0.000000
 --------------------------------------------------------


 ---------------------------------------------------------------------------------
              Anisotropic Spin Dipole Couplings in Principal Axis System
 ---------------------------------------------------------------------------------

       Atom             a.u.   MegaHertz   Gauss  10(-4) cm-1        Axes

              Baa    -0.8062    58.340    20.817    19.460 -0.2977  0.9546  0.0000
     1 O(17)  Bbb    -0.7253    52.480    18.726    17.505  0.9546  0.2977  0.0000
              Bcc     1.5315  -110.820   -39.543   -36.965  0.0000  0.0000  1.0000
 
              Baa    -0.0453   -24.177    -8.627    -8.065 -0.4111  0.9116  0.0000
     2 H(1)   Bbb    -0.0283   -15.107    -5.391    -5.039  0.0000  0.0000  1.0000
              Bcc     0.0736    39.284    14.018    13.104  0.9116  0.4111  0.0000
 
              Baa    -1.4366   103.954    37.093    34.675  0.1443  0.9895  0.0000
     3 O(17)  Bbb    -1.3869   100.355    35.809    33.475  0.9895 -0.1443  0.0000
              Bcc     2.8235  -204.309   -72.903   -68.150  0.0000  0.0000  1.0000
 

 ---------------------------------------------------------------------------------

 D2PCM: PCM CHGder 2nd derivatives, FixD1E=F FixD2E=F DoIter=F DoCFld=F I1PDM=0
 Calling FoFJK, ICntrl=    100127 FMM=F ISym2X=1 I1Cent= 0 IOpClX= 1 NMat=1 NMatS=1 NMatT=0.
 Full mass-weighted force constant matrix:
 Low frequencies ---   -0.0014    0.0008    0.0013   43.7709  107.9654  310.4882
 Low frequencies --- 1298.9575 1458.3905 3685.7662
 Diagonal vibrational polarizability:
        0.3140896       2.1840225       0.0000000
 Harmonic frequencies (cm**-1), IR intensities (KM/Mole), Raman scattering
 activities (A**4/AMU), depolarization ratios for plane and unpolarized
 incident light, reduced masses (AMU), force constants (mDyne/A),
 and normal coordinates:
                     1                      2                      3
                    A'                     A'                     A'
 Frequencies --  1298.9564              1458.3899              3685.7441
 Red. masses --    11.4636                 1.1542                 1.0685
 Frc consts  --    11.3962                 1.4463                 8.5525
 IR Inten    --    65.8528                82.2050               205.7953
  Atom  AN      X      Y      Z        X      Y      Z        X      Y      Z
     1   8    -0.04   0.60   0.00     0.06   0.00   0.00     0.06   0.02   0.00
     2   1     0.26  -0.48   0.00    -0.21   0.97   0.00    -0.96  -0.27   0.00
     3   8     0.03  -0.57   0.00    -0.05  -0.06   0.00     0.00   0.00   0.00

 -------------------
 - Thermochemistry -
 -------------------
 Temperature   298.150 Kelvin.  Pressure   1.00000 Atm.
 Atom     1 has atomic number  8 and mass  15.99491
 Atom     2 has atomic number  1 and mass   1.00783
 Atom     3 has atomic number  8 and mass  15.99491
 Molecular mass:    32.99765 amu.
 Principal axes and moments of inertia in atomic units:
                           1         2         3
     Eigenvalues --     2.87983  52.04089  54.92071
           X            0.06252   0.99804   0.00000
           Y            0.99804  -0.06252   0.00000
           Z            0.00000   0.00000   1.00000
 This molecule is an asymmetric top.
 Rotational symmetry number  1.
 Rotational temperatures (Kelvin)     30.07607     1.66434     1.57707
 Rotational constants (GHZ):         626.68432    34.67929    32.86085
 Zero-point vibrational energy      38538.2 (Joules/Mol)
                                    9.21086 (Kcal/Mol)
 Vibrational temperatures:   1868.91  2098.30  5302.96
          (Kelvin)
 
 Zero-point correction=                           0.014678 (Hartree/Particle)
 Thermal correction to Energy=                    0.017528
 Thermal correction to Enthalpy=                  0.018472
 Thermal correction to Gibbs Free Energy=        -0.007467
 Sum of electronic and zero-point Energies=           -150.843870
 Sum of electronic and thermal Energies=              -150.841020
 Sum of electronic and thermal Enthalpies=            -150.840076
 Sum of electronic and thermal Free Energies=         -150.866015
 
                     E (Thermal)             CV                S
                      KCal/Mol        Cal/Mol-Kelvin    Cal/Mol-Kelvin
 Total                   10.999              6.197             54.593
 Electronic               0.000              0.000              1.377
 Translational            0.889              2.981             36.413
 Rotational               0.889              2.981             16.761
 Vibrational              9.222              0.235              0.041
                       Q            Log10(Q)             Ln(Q)
 Total Bot       0.271885D+04          3.434386          7.907966
 Total V=0       0.153456D+11         10.185985         23.454098
 Vib (Bot)       0.177667D-06         -6.750394        -15.543356
 Vib (V=0)       0.100278D+01          0.001205          0.002776
 Electronic      0.200000D+01          0.301030          0.693147
 Translational   0.745040D+07          6.872180         15.823779
 Rotational      0.102700D+04          3.011570          6.934396
 ***** Axes restored to original set *****
 -------------------------------------------------------------------
 Center     Atomic                   Forces (Hartrees/Bohr)
 Number     Number              X              Y              Z
 -------------------------------------------------------------------
      1        8           0.000144437    0.000042746   -0.000042746
      2        1           0.000003368   -0.000054743    0.000054743
      3        8          -0.000147805    0.000011997   -0.000011997
 -------------------------------------------------------------------
 Cartesian Forces:  Max     0.000147805 RMS     0.000076489

 GradGradGradGradGradGradGradGradGradGradGradGradGradGradGradGradGradGrad
 Berny optimization.
 Internal  Forces:  Max     0.000154652 RMS     0.000096877
 Search for a local minimum.
 Step number   1 out of a maximum of    2
 All quantities printed in internal units (Hartrees-Bohrs-Radians)
 Second derivative matrix not updated -- analytic derivatives used.
 The second derivative matrix:
                          R1        R2        A1
           R1           0.48496
           R2           0.01369   0.54017
           A1          -0.00362   0.07878   0.24666
     Eigenvalues ---    0.22667   0.48314   0.56197
 Angle between quadratic step and forces=  17.71 degrees.
 Linear search not attempted -- first point.
 Iteration  1 RMS(Cart)=  0.00014067 RMS(Int)=  0.00000001
 Iteration  2 RMS(Cart)=  0.00000001 RMS(Int)=  0.00000000
 ClnCor:  largest displacement from symmetrization is 6.28D-16 for atom     2.
 Variable       Old X    -DE/DX   Delta X   Delta X   Delta X     New X
                                 (Linear)    (Quad)   (Total)
    R1        1.85236  -0.00006   0.00000  -0.00012  -0.00012   1.85223
    R2        2.46984  -0.00015   0.00000  -0.00030  -0.00030   2.46954
    A1        1.86422   0.00001   0.00000   0.00011   0.00011   1.86434
         Item               Value     Threshold  Converged?
 Maximum Force            0.000155     0.000450     YES
 RMS     Force            0.000097     0.000300     YES
 Maximum Displacement     0.000163     0.001800     YES
 RMS     Displacement     0.000141     0.001200     YES
 Predicted change in Energy=-2.752247D-08
 Optimization completed.
    -- Stationary point found.
                           ----------------------------
                           !   Optimized Parameters   !
                           ! (Angstroms and Degrees)  !
 --------------------------                            --------------------------
 ! Name  Definition              Value          Derivative Info.                !
 --------------------------------------------------------------------------------
 ! R1    R(1,2)                  0.9802         -DE/DX =   -0.0001              !
 ! R2    R(1,3)                  1.307          -DE/DX =   -0.0002              !
 ! A1    A(2,1,3)              106.8122         -DE/DX =    0.0                 !
 --------------------------------------------------------------------------------
 GradGradGradGradGradGradGradGradGradGradGradGradGradGradGradGradGradGrad

 1|1|UNPC-DESKTOP-319GPER|Freq|UM062X|6-31+G(d,p)|H1O2(2)|SAGAD|20-Jan-
 2021|0||#N Geom=AllCheck Guess=TCheck SCRF=Check GenChk UM062X/6-31+G(
 d,p) Freq||peroxido radical m062x||0,2|O,-1.4215617156,0.6093883609,0.
 0134535589|H,-1.7269514474,1.2680151397,-0.6451732097|O,-0.1149365669,
 0.6310085293,-0.0081666092||Version=IA32W-G09RevA.02|State=2-A"|HF=-15
 0.8585481|S2=0.754914|S2-1=0.|S2A=0.750013|RMSD=6.036e-010|RMSF=7.649e
 -005|ZeroPoint=0.0146784|Thermal=0.0175281|Dipole=-0.8287643,0.6245967
 ,-0.6245967|DipoleDeriv=-0.8154745,-0.0046363,0.0046363,0.1534417,-0.2
 061878,-0.0845808,-0.1534417,-0.0845808,-0.2061878,0.3980945,-0.032213
 8,0.0322138,-0.0881246,0.4500191,0.057403,0.0881246,0.057403,0.4500191
 ,0.4173799,0.0368501,-0.0368501,-0.0653171,-0.2438313,0.0271779,0.0653
 171,0.0271779,-0.2438313|Polar=22.4113909,-0.9525887,9.1091792,0.95258
 87,-0.9167028,9.1091792|PG=CS [SG(H1O2)]|NImag=0||0.56012808,-0.064439
 48,0.26167952,0.06443948,-0.25897645,0.26167951,-0.06424293,0.04926737
 ,-0.04926737,0.10943937,0.08544765,-0.23346801,0.23073332,-0.08461240,
 0.22664558,-0.08544765,0.23073332,-0.23346800,0.08461240,-0.22311425,0
 .22664557,-0.49588515,0.01517210,-0.01517210,-0.04519644,-0.00083525,0
 .00083525,0.54108159,-0.02100818,-0.02821151,0.02824314,0.03534502,0.0
 0682243,-0.00761907,-0.01433685,0.02138908,0.02100818,0.02824314,-0.02
 821151,-0.03534502,-0.00761907,0.00682243,0.01433685,-0.02062407,0.021
 38907||-0.00014444,-0.00004275,0.00004275,-0.00000337,0.00005474,-0.00
 005474,0.00014780,-0.00001200,0.00001200|||@


 YOU KNOW YOU'RE A TEACHER WHEN YOU SAY 2, WRITE 3, AND MEAN 4.
 -- RONALD ANSTROM, HIGH SCHOOL TEACHER, UNDERWOOD, N.D. 1974
 Job cpu time:  0 days  0 hours  0 minutes  7.0 seconds.
 File lengths (MBytes):  RWF=      5 Int=      0 D2E=      0 Chk=      2 Scr=      1
 Normal termination of Gaussian 09 at Wed Jan 20 08:04:15 2021.
