 Entering Link 1 = C:\G09W\l1.exe PID=      9812.
  
 Copyright (c) 1988,1990,1992,1993,1995,1998,2003,2009, Gaussian, Inc.
                  All Rights Reserved.
  
 This is part of the Gaussian(R) 09 program.  It is based on
 the Gaussian(R) 03 system (copyright 2003, Gaussian, Inc.),
 the Gaussian(R) 98 system (copyright 1998, Gaussian, Inc.),
 the Gaussian(R) 94 system (copyright 1995, Gaussian, Inc.),
 the Gaussian 92(TM) system (copyright 1992, Gaussian, Inc.),
 the Gaussian 90(TM) system (copyright 1990, Gaussian, Inc.),
 the Gaussian 88(TM) system (copyright 1988, Gaussian, Inc.),
 the Gaussian 86(TM) system (copyright 1986, Carnegie Mellon
 University), and the Gaussian 82(TM) system (copyright 1983,
 Carnegie Mellon University). Gaussian is a federally registered
 trademark of Gaussian, Inc.
  
 This software contains proprietary and confidential information,
 including trade secrets, belonging to Gaussian, Inc.
  
 This software is provided under written license and may be
 used, copied, transmitted, or stored only in accord with that
 written license.
  
 The following legend is applicable only to US Government
 contracts under FAR:
  
                    RESTRICTED RIGHTS LEGEND
  
 Use, reproduction and disclosure by the US Government is
 subject to restrictions as set forth in subparagraphs (a)
 and (c) of the Commercial Computer Software - Restricted
 Rights clause in FAR 52.227-19.
  
 Gaussian, Inc.
 340 Quinnipiac St., Bldg. 40, Wallingford CT 06492
  
  
 ---------------------------------------------------------------
 Warning -- This program may not be used in any manner that
 competes with the business of Gaussian, Inc. or will provide
 assistance to any competitor of Gaussian, Inc.  The licensee
 of this program is prohibited from giving any competitor of
 Gaussian, Inc. access to this program.  By using this program,
 the user acknowledges that Gaussian, Inc. is engaged in the
 business of creating and licensing software in the field of
 computational chemistry and represents and warrants to the
 licensee that it is not a competitor of Gaussian, Inc. and that
 it will not use this program in any manner prohibited above.
 ---------------------------------------------------------------
  

 Cite this work as:
 Gaussian 09, Revision A.02,
 M. J. Frisch, G. W. Trucks, H. B. Schlegel, G. E. Scuseria, 
 M. A. Robb, J. R. Cheeseman, G. Scalmani, V. Barone, B. Mennucci, 
 G. A. Petersson, H. Nakatsuji, M. Caricato, X. Li, H. P. Hratchian, 
 A. F. Izmaylov, J. Bloino, G. Zheng, J. L. Sonnenberg, M. Hada, 
 M. Ehara, K. Toyota, R. Fukuda, J. Hasegawa, M. Ishida, T. Nakajima, 
 Y. Honda, O. Kitao, H. Nakai, T. Vreven, J. A. Montgomery, Jr., 
 J. E. Peralta, F. Ogliaro, M. Bearpark, J. J. Heyd, E. Brothers, 
 K. N. Kudin, V. N. Staroverov, R. Kobayashi, J. Normand, 
 K. Raghavachari, A. Rendell, J. C. Burant, S. S. Iyengar, J. Tomasi, 
 M. Cossi, N. Rega, J. M. Millam, M. Klene, J. E. Knox, J. B. Cross, 
 V. Bakken, C. Adamo, J. Jaramillo, R. Gomperts, R. E. Stratmann, 
 O. Yazyev, A. J. Austin, R. Cammi, C. Pomelli, J. W. Ochterski, 
 R. L. Martin, K. Morokuma, V. G. Zakrzewski, G. A. Voth, 
 P. Salvador, J. J. Dannenberg, S. Dapprich, A. D. Daniels, 
 O. Farkas, J. B. Foresman, J. V. Ortiz, J. Cioslowski, 
 and D. J. Fox, Gaussian, Inc., Wallingford CT, 2009.
 
 ******************************************
 Gaussian 09:  IA32W-G09RevA.02 11-Jun-2009
                08-Oct-2020 
 ******************************************
 %chk=C:\Users\sagad\Documents\rayGit\FQ\quimicaComputacional\class4Metilo\estado
 DeTransicion\methaneHidroxilRadTsM062XTwo.chk
 %nprocshared=4
 Will use up to    4 processors via shared memory.
 %mem=1500MB
 ------------------------------------------------------------
 # opt=(calcfc,ts,noeigen) freq=(noraman) M062X/6-311++g(d,p)
 ------------------------------------------------------------
 1/5=1,10=4,11=1,14=-1,18=20,26=3,38=1/1,3;
 2/9=110,12=2,17=6,18=5,40=1/2;
 3/5=4,6=6,7=1111,11=2,16=1,25=1,30=1,71=2,74=-55/1,2,3;
 4//1;
 5/5=2,38=5/2;
 8/6=4,10=90,11=11/1;
 11/6=1,8=1,9=11,15=111,16=1/1,2,10;
 10/6=1,7=6,13=1/2;
 6/7=2,8=2,9=2,10=2,28=1/1;
 7/10=1,18=20,25=1/1,2,3,16;
 1/5=1,10=4,11=1,14=-1,18=20/3(2);
 2/9=110/2;
 99//99;
 2/9=110/2;
 3/5=4,6=6,7=1111,11=2,16=1,25=1,30=1,71=1,74=-55/1,2,3;
 4/5=5,16=3/1;
 5/5=2,38=5/2;
 7//1,2,3,16;
 1/5=1,11=1,14=-1,18=20/3(-5);
 2/9=110/2;
 6/7=2,8=2,9=2,10=2,19=2,28=1/1;
 99/9=1/99;
 ----------------------------------------------------------------------
 calculation of fransition state methane-hydroxil radical with M062X wi
 th basis 6-311++g(d,p)
 ----------------------------------------------------------------------
 Symbolic Z-matrix:
 Charge =  0 Multiplicity = 2
 C                     0.74301   1.76559  -0.87365 
 H                     1.09968   2.26999   0. 
 H                     1.09968   2.26999  -1.7473 
 H                    -0.32699   1.76561  -0.87365 
 H                     1.14299   0.63422  -0.87365 
 O                     1.57631  -0.59144  -0.87365 
 H                     1.25797  -1.04388  -0.08908 
 

 GradGradGradGradGradGradGradGradGradGradGradGradGradGradGradGradGradGrad
 Berny optimization.
 Initialization pass.
                           ----------------------------
                           !    Initial Parameters    !
                           ! (Angstroms and Degrees)  !
 --------------------------                            --------------------------
 ! Name  Definition              Value          Derivative Info.                !
 --------------------------------------------------------------------------------
 ! R1    R(1,2)                  1.07           calculate D2E/DX2 analytically  !
 ! R2    R(1,3)                  1.07           calculate D2E/DX2 analytically  !
 ! R3    R(1,4)                  1.07           calculate D2E/DX2 analytically  !
 ! R4    R(1,5)                  1.2            calculate D2E/DX2 analytically  !
 ! R5    R(5,6)                  1.3            calculate D2E/DX2 analytically  !
 ! R6    R(6,7)                  0.96           calculate D2E/DX2 analytically  !
 ! A1    A(2,1,3)              109.4713         calculate D2E/DX2 analytically  !
 ! A2    A(2,1,4)              109.4712         calculate D2E/DX2 analytically  !
 ! A3    A(2,1,5)              109.4712         calculate D2E/DX2 analytically  !
 ! A4    A(3,1,4)              109.4712         calculate D2E/DX2 analytically  !
 ! A5    A(3,1,5)              109.4712         calculate D2E/DX2 analytically  !
 ! A6    A(4,1,5)              109.4712         calculate D2E/DX2 analytically  !
 ! A7    A(5,6,7)              109.5            calculate D2E/DX2 analytically  !
 ! A8    L(1,5,6,3,-1)         180.0            calculate D2E/DX2 analytically  !
 ! A9    L(1,5,6,3,-2)         180.0            calculate D2E/DX2 analytically  !
 ! D1    D(2,1,6,7)             59.8889         calculate D2E/DX2 analytically  !
 ! D2    D(3,1,6,7)            179.8889         calculate D2E/DX2 analytically  !
 ! D3    D(4,1,6,7)            -60.1111         calculate D2E/DX2 analytically  !
 --------------------------------------------------------------------------------
 Trust Radius=3.00D-01 FncErr=1.00D-07 GrdErr=1.00D-06
 Number of steps in this run=  28 maximum allowed number of steps= 100.
 Search for a saddle point of order  1.
 GradGradGradGradGradGradGradGradGradGradGradGradGradGradGradGradGradGrad

                          Input orientation:                          
 ---------------------------------------------------------------------
 Center     Atomic      Atomic             Coordinates (Angstroms)
 Number     Number       Type             X           Y           Z
 ---------------------------------------------------------------------
      1          6           0        0.743007    1.765592   -0.873652
      2          1           0        1.099680    2.269990    0.000000
      3          1           0        1.099680    2.269990   -1.747303
      4          1           0       -0.326993    1.765605   -0.873652
      5          1           0        1.142993    0.634217   -0.873652
      6          8           0        1.576312   -0.591441   -0.873652
      7          1           0        1.257967   -1.043880   -0.089078
 ---------------------------------------------------------------------
                    Distance matrix (angstroms):
                    1          2          3          4          5
     1  C    0.000000
     2  H    1.070000   0.000000
     3  H    1.070000   1.747303   0.000000
     4  H    1.070000   1.747303   1.747303   0.000000
     5  H    1.200000   1.854966   1.854966   1.854966   0.000000
     6  O    2.500000   3.029560   3.029560   3.029560   1.300000
     7  H    2.962072   3.318844   3.708976   3.319768   1.856012
                    6          7
     6  O    0.000000
     7  H    0.960000   0.000000
 Stoichiometry    CH5O(2)
 Framework group  C1[X(CH5O)]
 Deg. of freedom    15
 Full point group                 C1      NOp   1
 Largest Abelian subgroup         C1      NOp   1
 Largest concise Abelian subgroup C1      NOp   1
                         Standard orientation:                         
 ---------------------------------------------------------------------
 Center     Atomic      Atomic             Coordinates (Angstroms)
 Number     Number       Type             X           Y           Z
 ---------------------------------------------------------------------
      1          6           0        1.208803   -0.011461    0.000000
      2          1           0        1.540310   -0.534383   -0.872671
      3          1           0        1.614344    0.978707   -0.001956
      4          1           0        1.540476   -0.530998    0.874628
      5          1           0        0.010237    0.047184    0.000000
      6          8           0       -1.288210    0.110717    0.000000
      7          1           0       -1.652507   -0.777477    0.000000
 ---------------------------------------------------------------------
 Rotational constants (GHZ):    131.6128919      9.1016047      8.9782435
 Standard basis: 6-311++G(d,p) (5D, 7F)
 There are    79 symmetry adapted basis functions of A   symmetry.
 Integral buffers will be    262144 words long.
 Raffenetti 2 integral format.
 Two-electron integral symmetry is turned on.
    79 basis functions,   117 primitive gaussians,    81 cartesian basis functions
    10 alpha electrons        9 beta electrons
       nuclear repulsion energy        37.1494648913 Hartrees.
 NAtoms=    7 NActive=    7 NUniq=    7 SFac= 7.50D-01 NAtFMM=   80 NAOKFM=F Big=F
 One-electron integrals computed using PRISM.
 NBasis=    79 RedAO= T  NBF=    79
 NBsUse=    79 1.00D-06 NBFU=    79
 Harris functional with IExCor= 1009 diagonalized for initial guess.
 ExpMin= 3.60D-02 ExpMax= 8.59D+03 ExpMxC= 1.30D+03 IAcc=3 IRadAn=         0 AccDes= 0.00D+00
 HarFok:  IExCor= 1009 AccDes= 0.00D+00 IRadAn=         0 IDoV= 1
 ScaDFX=  1.000000  1.000000  1.000000  1.000000
 FoFCou: FMM=F IPFlag=           0 FMFlag=      100000 FMFlg1=           0
         NFxFlg=           0 DoJE=T BraDBF=F KetDBF=T FulRan=T
         Omega=  0.000000  0.000000  1.000000  0.000000  0.000000 ICntrl=     500 IOpCl=  0
         NMat0=    1 NMatS0=    1 NMatT0=    0 NMatD0=    1 NMtDS0=    0 NMtDT0=    0
         I1Cent=           4 NGrid=           0.
 Petite list used in FoFCou.
 Initial guess orbital symmetries:
 Alpha Orbitals:
       Occupied  (A) (A) (A) (A) (A) (A) (A) (A) (A) (A)
       Virtual   (A) (A) (A) (A) (A) (A) (A) (A) (A) (A) (A) (A)
                 (A) (A) (A) (A) (A) (A) (A) (A) (A) (A) (A) (A)
                 (A) (A) (A) (A) (A) (A) (A) (A) (A) (A) (A) (A)
                 (A) (A) (A) (A) (A) (A) (A) (A) (A) (A) (A) (A)
                 (A) (A) (A) (A) (A) (A) (A) (A) (A) (A) (A) (A)
                 (A) (A) (A) (A) (A) (A) (A) (A) (A)
 Beta  Orbitals:
       Occupied  (A) (A) (A) (A) (A) (A) (A) (A) (A)
       Virtual   (A) (A) (A) (A) (A) (A) (A) (A) (A) (A) (A) (A)
                 (A) (A) (A) (A) (A) (A) (A) (A) (A) (A) (A) (A)
                 (A) (A) (A) (A) (A) (A) (A) (A) (A) (A) (A) (A)
                 (A) (A) (A) (A) (A) (A) (A) (A) (A) (A) (A) (A)
                 (A) (A) (A) (A) (A) (A) (A) (A) (A) (A) (A) (A)
                 (A) (A) (A) (A) (A) (A) (A) (A) (A) (A)
 The electronic state of the initial guess is 2-A.
 Initial guess <Sx>= 0.0000 <Sy>= 0.0000 <Sz>= 0.5000 <S**2>= 0.7500 S= 0.5000
 Requested convergence on RMS density matrix=1.00D-08 within 128 cycles.
 Requested convergence on MAX density matrix=1.00D-06.
 Requested convergence on             energy=1.00D-06.
 No special actions if energy rises.
 Keep R1 and R2 ints in memory in canonical form, NReq=12028007.
 SCF Done:  E(UM062X) =  -116.210063597     A.U. after   13 cycles
             Convg  =    0.7058D-08             -V/T =  2.0024
 <Sx>= 0.0000 <Sy>= 0.0000 <Sz>= 0.5000 <S**2>= 0.7586 S= 0.5043
 <L.S>= 0.000000000000E+00
 Annihilation of the first spin contaminant:
 S**2 before annihilation     0.7586,   after     0.7500
 Range of M.O.s used for correlation:     1    79
 NBasis=    79 NAE=    10 NBE=     9 NFC=     0 NFV=     0
 NROrb=     79 NOA=    10 NOB=     9 NVA=    69 NVB=    70

 **** Warning!!: The largest alpha MO coefficient is  0.15884652D+02


 **** Warning!!: The largest beta MO coefficient is  0.16824999D+02

 Symmetrizing basis deriv contribution to polar:
 IMax=3 JMax=2 DiffMx= 0.00D+00
 G2DrvN: will do     8 centers at a time, making    1 passes doing MaxLOS=2.
 Calling FoFCou, ICntrl=  3107 FMM=F I1Cent=   0 AccDes= 0.00D+00.
 FoFDir/FoFCou used for L=0 through L=2.
 End of G2Drv Frequency-dependent properties file   721 does not exist.
 End of G2Drv Frequency-dependent properties file   722 does not exist.
          IDoAtm=1111111
          Differentiating once with respect to nuclear coordinates.
          Keep R1 and R2 ints in memory in canonical form, NReq=11853951.
          There are    24 degrees of freedom in the 1st order CPHF.  IDoFFX=5.
     18 vectors produced by pass  0 Test12= 5.50D-11 4.17D-07 XBig12= 2.36D-01 3.58D-01.
 AX will form    18 AO Fock derivatives at one time.
     18 vectors produced by pass  1 Test12= 5.50D-11 4.17D-07 XBig12= 7.06D-03 2.51D-02.
     18 vectors produced by pass  2 Test12= 5.50D-11 4.17D-07 XBig12= 3.51D-04 4.15D-03.
     18 vectors produced by pass  3 Test12= 5.50D-11 4.17D-07 XBig12= 5.85D-06 4.13D-04.
     18 vectors produced by pass  4 Test12= 5.50D-11 4.17D-07 XBig12= 5.63D-08 4.70D-05.
      8 vectors produced by pass  5 Test12= 5.50D-11 4.17D-07 XBig12= 4.80D-10 3.82D-06.
 Inverted reduced A of dimension    98 with in-core refinement.
 End of Minotr Frequency-dependent properties file   721 does not exist.
 End of Minotr Frequency-dependent properties file   722 does not exist.

 **********************************************************************

            Population analysis using the SCF density.

 **********************************************************************

 Orbital symmetries:
 Alpha Orbitals:
       Occupied  (A) (A) (A) (A) (A) (A) (A) (A) (A) (A)
       Virtual   (A) (A) (A) (A) (A) (A) (A) (A) (A) (A) (A) (A)
                 (A) (A) (A) (A) (A) (A) (A) (A) (A) (A) (A) (A)
                 (A) (A) (A) (A) (A) (A) (A) (A) (A) (A) (A) (A)
                 (A) (A) (A) (A) (A) (A) (A) (A) (A) (A) (A) (A)
                 (A) (A) (A) (A) (A) (A) (A) (A) (A) (A) (A) (A)
                 (A) (A) (A) (A) (A) (A) (A) (A) (A)
 Beta  Orbitals:
       Occupied  (A) (A) (A) (A) (A) (A) (A) (A) (A)
       Virtual   (A) (A) (A) (A) (A) (A) (A) (A) (A) (A) (A) (A)
                 (A) (A) (A) (A) (A) (A) (A) (A) (A) (A) (A) (A)
                 (A) (A) (A) (A) (A) (A) (A) (A) (A) (A) (A) (A)
                 (A) (A) (A) (A) (A) (A) (A) (A) (A) (A) (A) (A)
                 (A) (A) (A) (A) (A) (A) (A) (A) (A) (A) (A) (A)
                 (A) (A) (A) (A) (A) (A) (A) (A) (A) (A)
 The electronic state is 2-A.
 Alpha  occ. eigenvalues --  -19.65296 -10.54034  -1.12769  -0.81368  -0.59788
 Alpha  occ. eigenvalues --   -0.50710  -0.48383  -0.48086  -0.41139  -0.36368
 Alpha virt. eigenvalues --   -0.00492   0.01963   0.03492   0.03829   0.06604
 Alpha virt. eigenvalues --    0.09041   0.10589   0.11767   0.13707   0.18350
 Alpha virt. eigenvalues --    0.20391   0.21512   0.22291   0.22478   0.23989
 Alpha virt. eigenvalues --    0.29529   0.33675   0.38425   0.43256   0.44454
 Alpha virt. eigenvalues --    0.47858   0.57401   0.66897   0.69983   0.69984
 Alpha virt. eigenvalues --    0.77257   0.98594   1.00654   1.01287   1.06977
 Alpha virt. eigenvalues --    1.07763   1.11400   1.36481   1.42835   1.50656
 Alpha virt. eigenvalues --    1.51610   1.52715   1.55796   1.58195   1.59157
 Alpha virt. eigenvalues --    1.72238   1.89997   1.91383   2.00238   2.10089
 Alpha virt. eigenvalues --    2.29031   2.29743   2.31528   2.49185   2.50003
 Alpha virt. eigenvalues --    2.51588   2.53404   2.61165   2.61838   2.66256
 Alpha virt. eigenvalues --    2.97749   2.99459   3.18984   3.20007   3.45169
 Alpha virt. eigenvalues --    3.82141   3.84989   3.85300   3.99940   5.05585
 Alpha virt. eigenvalues --    5.33062   5.68622  24.09856  49.96222
  Beta  occ. eigenvalues --  -19.64054 -10.53630  -1.07855  -0.79386  -0.55443
  Beta  occ. eigenvalues --   -0.47643  -0.47582  -0.43626  -0.38363
  Beta virt. eigenvalues --   -0.10931  -0.00186   0.02507   0.03688   0.04109
  Beta virt. eigenvalues --    0.06964   0.09274   0.10773   0.11496   0.13881
  Beta virt. eigenvalues --    0.18977   0.20951   0.21509   0.22582   0.22839
  Beta virt. eigenvalues --    0.23708   0.29941   0.33997   0.41115   0.43273
  Beta virt. eigenvalues --    0.44571   0.48677   0.58148   0.68232   0.70913
  Beta virt. eigenvalues --    0.70918   0.77748   1.00199   1.01248   1.01962
  Beta virt. eigenvalues --    1.08108   1.08910   1.15004   1.36640   1.44185
  Beta virt. eigenvalues --    1.50850   1.52316   1.53625   1.55727   1.58809
  Beta virt. eigenvalues --    1.59765   1.73797   1.89995   1.91238   2.00868
  Beta virt. eigenvalues --    2.10993   2.30087   2.31647   2.32482   2.48262
  Beta virt. eigenvalues --    2.50186   2.51730   2.53676   2.62119   2.62425
  Beta virt. eigenvalues --    2.63108   2.98971   3.02339   3.20566   3.23538
  Beta virt. eigenvalues --    3.48183   3.84247   3.85950   3.86363   4.02527
  Beta virt. eigenvalues --    5.07681   5.37725   5.71782  24.10418  49.95563
          Condensed to atoms (all electrons):
              1          2          3          4          5          6
     1  C    5.172624   0.389875   0.394295   0.389903   0.304180  -0.078503
     2  H    0.389875   0.550819  -0.033033  -0.037755  -0.029062  -0.002519
     3  H    0.394295  -0.033033   0.525877  -0.033034  -0.029232   0.000095
     4  H    0.389903  -0.037755  -0.033034   0.550773  -0.029088  -0.002516
     5  H    0.304180  -0.029062  -0.029232  -0.029088   0.492121   0.073602
     6  O   -0.078503  -0.002519   0.000095  -0.002516   0.073602   8.141675
     7  H    0.016281  -0.000537   0.001465  -0.000537  -0.017901   0.266845
              7
     1  C    0.016281
     2  H   -0.000537
     3  H    0.001465
     4  H   -0.000537
     5  H   -0.017901
     6  O    0.266845
     7  H    0.480462
 Mulliken atomic charges:
              1
     1  C   -0.588655
     2  H    0.162212
     3  H    0.173566
     4  H    0.162253
     5  H    0.235379
     6  O   -0.398679
     7  H    0.253923
 Sum of Mulliken atomic charges =   0.00000
 Mulliken charges with hydrogens summed into heavy atoms:
              1
     1  C    0.144756
     6  O   -0.144756
 Sum of Mulliken charges with hydrogens summed into heavy atoms =   0.00000
          Atomic-Atomic Spin Densities.
              1          2          3          4          5          6
     1  C    0.463315  -0.012551  -0.014905  -0.012559   0.098262  -0.098866
     2  H   -0.012551  -0.014234   0.005591   0.002895   0.004205   0.003212
     3  H   -0.014905   0.005591  -0.002124   0.005596  -0.008903   0.009379
     4  H   -0.012559   0.002895   0.005596  -0.014224   0.004203   0.003214
     5  H    0.098262   0.004205  -0.008903   0.004203  -0.076883  -0.057094
     6  O   -0.098866   0.003212   0.009379   0.003214  -0.057094   0.778976
     7  H    0.004091  -0.000380  -0.000627  -0.000380   0.003889   0.005142
              7
     1  C    0.004091
     2  H   -0.000380
     3  H   -0.000627
     4  H   -0.000380
     5  H    0.003889
     6  O    0.005142
     7  H   -0.021649
 Mulliken atomic spin densities:
              1
     1  C    0.426785
     2  H   -0.011263
     3  H   -0.005994
     4  H   -0.011255
     5  H   -0.032322
     6  O    0.643962
     7  H   -0.009915
 Sum of Mulliken atomic spin densities =   1.00000
 APT atomic charges:
              1
     1  C   -1.202444
     2  H    0.376256
     3  H    0.405504
     4  H    0.376319
     5  H    0.170213
     6  O   -0.629896
     7  H    0.504048
 Sum of APT charges=   0.00000
 APT Atomic charges with hydrogens summed into heavy atoms:
              1
     1  C    0.125849
     2  H    0.000000
     3  H    0.000000
     4  H    0.000000
     5  H    0.000000
     6  O   -0.125849
     7  H    0.000000
 Sum of APT charges=   0.00000
 Electronic spatial extent (au):  <R**2>=            159.1149
 Charge=              0.0000 electrons
 Dipole moment (field-independent basis, Debye):
    X=              0.9895    Y=             -1.6133    Z=              0.0000  Tot=              1.8926
 Quadrupole moment (field-independent basis, Debye-Ang):
   XX=            -13.1907   YY=            -13.3217   ZZ=            -15.1482
   XY=              3.0080   XZ=             -0.0001   YZ=             -0.0001
 Traceless Quadrupole moment (field-independent basis, Debye-Ang):
   XX=              0.6961   YY=              0.5652   ZZ=             -1.2613
   XY=              3.0080   XZ=             -0.0001   YZ=             -0.0001
 Octapole moment (field-independent basis, Debye-Ang**2):
  XXX=             -7.2741  YYY=             -0.8122  ZZZ=              0.0039  XYY=             -2.5743
  XXY=             -4.6734  XXZ=             -0.0001  XZZ=              0.0530  YZZ=             -0.9525
  YYZ=             -0.0039  XYZ=             -0.0004
 Hexadecapole moment (field-independent basis, Debye-Ang**3):
 XXXX=           -151.7921 YYYY=            -21.6180 ZZZZ=            -21.7088 XXXY=              9.7271
 XXXZ=             -0.0003 YYYX=              4.2875 YYYZ=              0.0002 ZZZX=              0.0068
 ZZZY=             -0.0003 XXYY=            -26.0440 XXZZ=            -30.5156 YYZZ=             -7.3378
 XXYZ=             -0.0011 YYXZ=             -0.0068 ZZXY=             -0.5425
 N-N= 3.714946489134D+01 E-N=-5.147689808586D+02  KE= 1.725556072432D+02
  Exact polarizability:   0.000   0.000   0.000   0.000   0.000   0.000
 Approx polarizability:  37.605   0.464  20.872   0.000   0.000  19.065
                          Isotropic Fermi Contact Couplings
        Atom                 a.u.       MegaHertz       Gauss      10(-4) cm-1
     1  C(13)              0.17182     193.16332      68.92547      64.43235
     2  H(1)              -0.00289     -12.91545      -4.60855      -4.30813
     3  H(1)              -0.00102      -4.57712      -1.63323      -1.52676
     4  H(1)              -0.00289     -12.90212      -4.60380      -4.30368
     5  H(1)              -0.01816     -81.16864     -28.96299     -27.07494
     6  O(17)              0.13264     -80.40660     -28.69107     -26.82076
     7  H(1)              -0.00992     -44.33712     -15.82059     -14.78927
 --------------------------------------------------------
       Center         ----  Spin Dipole Couplings  ----
                      3XX-RR        3YY-RR        3ZZ-RR
 --------------------------------------------------------
     1   Atom        0.491651     -0.245679     -0.245972
     2   Atom        0.002543     -0.015877      0.013335
     3   Atom        0.004267      0.028544     -0.032811
     4   Atom        0.002546     -0.016091      0.013546
     5   Atom        0.245469     -0.122155     -0.123315
     6   Atom        2.319443     -0.978531     -1.340912
     7   Atom       -0.007770      0.106270     -0.098500
 --------------------------------------------------------
                        XY            XZ            YZ
 --------------------------------------------------------
     1   Atom       -0.024939      0.000000      0.000000
     2   Atom       -0.010135     -0.014877      0.027798
     3   Atom        0.018653     -0.000039     -0.000121
     4   Atom       -0.010081      0.014917     -0.027684
     5   Atom       -0.003404      0.000000      0.000001
     6   Atom       -1.186985      0.000000      0.000000
     7   Atom        0.057335      0.000000      0.000000
 --------------------------------------------------------


 ---------------------------------------------------------------------------------
              Anisotropic Spin Dipole Couplings in Principal Axis System
 ---------------------------------------------------------------------------------

       Atom             a.u.   MegaHertz   Gauss  10(-4) cm-1        Axes

              Baa    -0.2465   -33.081   -11.804   -11.035  0.0338  0.9994  0.0007
     1 C(13)  Bbb    -0.2460   -33.007   -11.778   -11.010  0.0000 -0.0007  1.0000
              Bcc     0.4925    66.088    23.582    22.045  0.9994 -0.0338  0.0000
 
              Baa    -0.0327   -17.450    -6.226    -5.821  0.0326  0.8602 -0.5089
     2 H(1)   Bbb    -0.0063    -3.357    -1.198    -1.120  0.8962  0.2002  0.3958
              Bcc     0.0390    20.807     7.424     6.940 -0.4424  0.4690  0.7645
 
              Baa    -0.0328   -17.507    -6.247    -5.840  0.0001  0.0020  1.0000
     3 H(1)   Bbb    -0.0058    -3.121    -1.114    -1.041  0.8790 -0.4767  0.0009
              Bcc     0.0387    20.627     7.360     6.881  0.4767  0.8790 -0.0018
 
              Baa    -0.0327   -17.450    -6.227    -5.821  0.0326  0.8622  0.5055
     4 H(1)   Bbb    -0.0063    -3.357    -1.198    -1.120  0.8962  0.1987 -0.3967
              Bcc     0.0390    20.807     7.424     6.940  0.4424 -0.4660  0.7662
 
              Baa    -0.1233   -65.795   -23.477   -21.947  0.0000 -0.0007  1.0000
     5 H(1)   Bbb    -0.1222   -65.193   -23.262   -21.746  0.0093  1.0000  0.0007
              Bcc     0.2455   130.988    46.740    43.693  1.0000 -0.0093  0.0000
 
              Baa    -1.3613    98.504    35.149    32.857  0.3069  0.9517  0.0000
     6 O(17)  Bbb    -1.3409    97.027    34.622    32.365  0.0000  0.0000  1.0000
              Bcc     2.7022  -195.531   -69.770   -65.222  0.9517 -0.3069  0.0000
 
              Baa    -0.0985   -52.555   -18.753   -17.530  0.0000  0.0000  1.0000
     7 H(1)   Bbb    -0.0316   -16.866    -6.018    -5.626  0.9234 -0.3840  0.0000
              Bcc     0.1301    69.421    24.771    23.157  0.3840  0.9234  0.0000
 

 ---------------------------------------------------------------------------------

 Calling FoFJK, ICntrl=    100147 FMM=F ISym2X=0 I1Cent= 0 IOpClX= 1 NMat=1 NMatS=1 NMatT=0.
 ***** Axes restored to original set *****
 -------------------------------------------------------------------
 Center     Atomic                   Forces (Hartrees/Bohr)
 Number     Number              X              Y              Z
 -------------------------------------------------------------------
      1        6          -0.005242008    0.007188998    0.004414321
      2        1           0.007454615    0.001349006    0.012720436
      3        1           0.008530465   -0.001193487   -0.013236432
      4        1          -0.013501342   -0.006067129   -0.000114647
      5        1          -0.000023068   -0.000141741    0.000119514
      6        8           0.009838712   -0.003590396   -0.014055961
      7        1          -0.007057374    0.002454749    0.010152769
 -------------------------------------------------------------------
 Cartesian Forces:  Max     0.014055961 RMS     0.007723064

 GradGradGradGradGradGradGradGradGradGradGradGradGradGradGradGradGradGrad
 Berny optimization.
 Internal  Forces:  Max     0.015085977 RMS     0.008165239
 Search for a saddle point.
 Step number   1 out of a maximum of   28
 All quantities printed in internal units (Hartrees-Bohrs-Radians)
 Swaping is turned off.
 Second derivative matrix not updated -- analytic derivatives used.
 The second derivative matrix:
                          R1        R2        R3        R4        R5
           R1           0.39101
           R2           0.00117   0.39284
           R3           0.00115   0.00117   0.39109
           R4           0.00094   0.00011   0.00094   0.16794
           R5           0.00027   0.00025   0.00026   0.10848   0.01403
           R6          -0.00003   0.00005  -0.00003   0.00549  -0.00882
           A1           0.00717   0.00714  -0.00352  -0.01208   0.00712
           A2           0.00756  -0.00352   0.00758  -0.01227   0.00694
           A3           0.00149  -0.00627  -0.00616   0.01346  -0.00640
           A4          -0.00352   0.00713   0.00720  -0.01208   0.00712
           A5          -0.00654   0.00180  -0.00653   0.00952  -0.00837
           A6          -0.00616  -0.00628   0.00143   0.01345  -0.00640
           A7           0.00020  -0.00131   0.00019   0.00250  -0.01064
           A8           0.00136  -0.00303   0.00138   0.00134   0.00010
           A9          -0.00167   0.00000   0.00169   0.00000   0.00000
           D1           0.00032  -0.00551   0.00564   0.00051   0.00031
           D2           0.00598   0.00001  -0.00597   0.00000   0.00000
           D3          -0.00565   0.00551  -0.00031  -0.00051  -0.00031
                          R6        A1        A2        A3        A4
           R6           0.55916
           A1           0.00114   0.05964
           A2           0.00102  -0.00498   0.06080
           A3          -0.00069  -0.02545  -0.02569   0.07037
           A4           0.00114  -0.00434  -0.00498   0.00006   0.05964
           A5          -0.00193  -0.02493   0.00054  -0.00974  -0.02494
           A6          -0.00069   0.00006  -0.02569  -0.00955  -0.02543
           A7           0.00267   0.00042   0.00115  -0.00187   0.00042
           A8           0.00040  -0.00231   0.00935  -0.00027  -0.00232
           A9           0.00000  -0.00437   0.00000  -0.00074   0.00436
           D1           0.00014  -0.02099   0.02001   0.00096   0.00009
           D2           0.00000   0.02018   0.00000   0.00676  -0.02019
           D3          -0.00014  -0.00008  -0.02001  -0.00491   0.02099
                          A5        A6        A7        A8        A9
           A5           0.06880
           A6          -0.00973   0.07034
           A7           0.00176  -0.00187   0.07202
           A8          -0.00419  -0.00027  -0.00594   0.01971
           A9           0.00000   0.00075   0.00001  -0.00001   0.00343
           D1          -0.00496   0.00490   0.00051   0.00242   0.00088
           D2           0.00001  -0.00676   0.00000   0.00000  -0.00441
           D3           0.00496  -0.00095  -0.00050  -0.00243   0.00087
                          D1        D2        D3
           D1           0.01849
           D2          -0.00916   0.01904
           D3          -0.00884  -0.00916   0.01849
     Eigenvalues ---   -0.04893  -0.00027   0.00347   0.01777   0.06831
     Eigenvalues ---    0.06994   0.07441   0.10199   0.10255   0.10370
     Eigenvalues ---    0.22692   0.39077   0.39178   0.39503   0.55937
     Eigenvalues --- 1000.000001000.000001000.00000
 Eigenvectors required to have negative eigenvalues:
                          R5        R4        A7        A3        A6
   1                    0.86183  -0.45927   0.08891   0.07916   0.07915
                          A4        A1        A2        A5        A8
   1                   -0.07899  -0.07899  -0.07869   0.07837   0.02644
 RFO step:  Lambda0=2.491256660D-04 Lambda=-7.09130650D-03.
 Linear search not attempted -- option 19 set.
 Maximum step size (   0.300) exceeded in Quadratic search.
    -- Step size scaled by   0.377
 Iteration  1 RMS(Cart)=  0.06426047 RMS(Int)=  0.00489470
 Iteration  2 RMS(Cart)=  0.00472840 RMS(Int)=  0.00029655
 Iteration  3 RMS(Cart)=  0.00001835 RMS(Int)=  0.00029575
 Iteration  4 RMS(Cart)=  0.00000000 RMS(Int)=  0.00029575
 Variable       Old X    -DE/DX   Delta X   Delta X   Delta X     New X
                                 (Linear)    (Quad)   (Total)
    R1        2.02201   0.01350   0.00000   0.01138   0.01138   2.03338
    R2        2.02201   0.01309   0.00000   0.01158   0.01158   2.03359
    R3        2.02201   0.01350   0.00000   0.01144   0.01144   2.03344
    R4        2.26767   0.00212   0.00000  -0.01276  -0.01277   2.25490
    R5        2.45664   0.00199   0.00000   0.03993   0.03993   2.49657
    R6        1.81414   0.00949   0.00000   0.00709   0.00709   1.82123
    A1        1.91063   0.00713   0.00000   0.01595   0.01525   1.92588
    A2        1.91063   0.00694   0.00000   0.02021   0.02036   1.93099
    A3        1.91063  -0.00522   0.00000  -0.00768  -0.00793   1.90270
    A4        1.91063   0.00713   0.00000   0.02124   0.02113   1.93176
    A5        1.91063  -0.01076   0.00000  -0.03301  -0.03339   1.87724
    A6        1.91063  -0.00523   0.00000  -0.01670  -0.01669   1.89394
    A7        1.91114  -0.01509   0.00000  -0.06357  -0.06357   1.84757
    A8        3.14159   0.00420   0.00000   0.03646   0.03632   3.17791
    A9        3.14159  -0.00001   0.00000  -0.12735  -0.12741   3.01418
    D1        1.04526   0.00038   0.00000  -0.13976  -0.14048   0.90478
    D2        3.13965   0.00000   0.00000  -0.15843  -0.15793   2.98173
    D3       -1.04914  -0.00038   0.00000  -0.13797  -0.13775  -1.18689
         Item               Value     Threshold  Converged?
 Maximum Force            0.015086     0.000450     NO 
 RMS     Force            0.008165     0.000300     NO 
 Maximum Displacement     0.147056     0.001800     NO 
 RMS     Displacement     0.066239     0.001200     NO 
 Predicted change in Energy=-2.136781D-03
 GradGradGradGradGradGradGradGradGradGradGradGradGradGradGradGradGradGrad

                          Input orientation:                          
 ---------------------------------------------------------------------
 Center     Atomic      Atomic             Coordinates (Angstroms)
 Number     Number       Type             X           Y           Z
 ---------------------------------------------------------------------
      1          6           0        0.735106    1.762392   -0.874026
      2          1           0        1.108172    2.209321    0.030902
      3          1           0        1.129971    2.274112   -1.734420
      4          1           0       -0.340826    1.772542   -0.886443
      5          1           0        1.104005    0.628918   -0.928631
      6          8           0        1.558610   -0.611149   -0.897766
      7          1           0        1.297607   -0.966061   -0.040602
 ---------------------------------------------------------------------
                    Distance matrix (angstroms):
                    1          2          3          4          5
     1  C    0.000000
     2  H    1.076019   0.000000
     3  H    1.076128   1.766644   0.000000
     4  H    1.076052   1.769716   1.770277   0.000000
     5  H    1.193244   1.848889   1.832111   1.843147   0.000000
     6  O    2.512453   3.003392   3.034543   3.047944   1.321130
     7  H    2.907827   3.181831   3.660033   3.301493   1.835766
                    6          7
     6  O    0.000000
     7  H    0.963751   0.000000
 Stoichiometry    CH5O(2)
 Framework group  C1[X(CH5O)]
 Deg. of freedom    15
 Full point group                 C1      NOp   1
 Largest Abelian subgroup         C1      NOp   1
 Largest concise Abelian subgroup C1      NOp   1
                         Standard orientation:                         
 ---------------------------------------------------------------------
 Center     Atomic      Atomic             Coordinates (Angstroms)
 Number     Number       Type             X           Y           Z
 ---------------------------------------------------------------------
      1          6           0        1.212979   -0.010923   -0.000060
      2          1           0        1.490307   -0.660095   -0.812145
      3          1           0        1.607349    0.977515   -0.159790
      4          1           0        1.556069   -0.409885    0.938559
      5          1           0        0.023650    0.077846    0.038004
      6          8           0       -1.296507    0.111142   -0.000219
      7          1           0       -1.583190   -0.808980   -0.002519
 ---------------------------------------------------------------------
 Rotational constants (GHZ):    127.2908587      9.0777361      8.9474235
 Standard basis: 6-311++G(d,p) (5D, 7F)
 There are    79 symmetry adapted basis functions of A   symmetry.
 Integral buffers will be    262144 words long.
 Raffenetti 2 integral format.
 Two-electron integral symmetry is turned on.
    79 basis functions,   117 primitive gaussians,    81 cartesian basis functions
    10 alpha electrons        9 beta electrons
       nuclear repulsion energy        37.0241454699 Hartrees.
 NAtoms=    7 NActive=    7 NUniq=    7 SFac= 7.50D-01 NAtFMM=   80 NAOKFM=F Big=F
 One-electron integrals computed using PRISM.
 NBasis=    79 RedAO= T  NBF=    79
 NBsUse=    79 1.00D-06 NBFU=    79
 Initial guess read from the read-write file.
 B after Tr=     0.000000    0.000000    0.000000
         Rot=    1.000000    0.000000    0.000000    0.000000 Ang=   0.00 deg.
 Initial guess orbital symmetries:
 Alpha Orbitals:
       Occupied  (A) (A) (A) (A) (A) (A) (A) (A) (A) (A)
       Virtual   (A) (A) (A) (A) (A) (A) (A) (A) (A) (A) (A) (A)
                 (A) (A) (A) (A) (A) (A) (A) (A) (A) (A) (A) (A)
                 (A) (A) (A) (A) (A) (A) (A) (A) (A) (A) (A) (A)
                 (A) (A) (A) (A) (A) (A) (A) (A) (A) (A) (A) (A)
                 (A) (A) (A) (A) (A) (A) (A) (A) (A) (A) (A) (A)
                 (A) (A) (A) (A) (A) (A) (A) (A) (A)
 Beta  Orbitals:
       Occupied  (A) (A) (A) (A) (A) (A) (A) (A) (A)
       Virtual   (A) (A) (A) (A) (A) (A) (A) (A) (A) (A) (A) (A)
                 (A) (A) (A) (A) (A) (A) (A) (A) (A) (A) (A) (A)
                 (A) (A) (A) (A) (A) (A) (A) (A) (A) (A) (A) (A)
                 (A) (A) (A) (A) (A) (A) (A) (A) (A) (A) (A) (A)
                 (A) (A) (A) (A) (A) (A) (A) (A) (A) (A) (A) (A)
                 (A) (A) (A) (A) (A) (A) (A) (A) (A) (A)
 Initial guess <Sx>= 0.0000 <Sy>= 0.0000 <Sz>= 0.5000 <S**2>= 0.7587 S= 0.5043
 Harris functional with IExCor= 1009 diagonalized for initial guess.
 ExpMin= 3.60D-02 ExpMax= 8.59D+03 ExpMxC= 1.30D+03 IAcc=3 IRadAn=         0 AccDes= 0.00D+00
 HarFok:  IExCor= 1009 AccDes= 0.00D+00 IRadAn=         0 IDoV= 1
 ScaDFX=  1.000000  1.000000  1.000000  1.000000
 FoFCou: FMM=F IPFlag=           0 FMFlag=      100000 FMFlg1=           0
         NFxFlg=           0 DoJE=T BraDBF=F KetDBF=T FulRan=T
         Omega=  0.000000  0.000000  1.000000  0.000000  0.000000 ICntrl=     500 IOpCl=  0
         NMat0=    1 NMatS0=    1 NMatT0=    0 NMatD0=    1 NMtDS0=    0 NMtDT0=    0
         I1Cent=           4 NGrid=           0.
 Petite list used in FoFCou.
 Requested convergence on RMS density matrix=1.00D-08 within 128 cycles.
 Requested convergence on MAX density matrix=1.00D-06.
 Requested convergence on             energy=1.00D-06.
 No special actions if energy rises.
 Keep R1 and R2 ints in memory in canonical form, NReq=12028007.
 SCF Done:  E(UM062X) =  -116.212209939     A.U. after   14 cycles
             Convg  =    0.3706D-08             -V/T =  2.0027
 <Sx>= 0.0000 <Sy>= 0.0000 <Sz>= 0.5000 <S**2>= 0.7586 S= 0.5043
 <L.S>= 0.000000000000E+00
 Annihilation of the first spin contaminant:
 S**2 before annihilation     0.7586,   after     0.7500
 Calling FoFJK, ICntrl=      2127 FMM=F ISym2X=0 I1Cent= 0 IOpClX= 1 NMat=1 NMatS=1 NMatT=0.
 ***** Axes restored to original set *****
 -------------------------------------------------------------------
 Center     Atomic                   Forces (Hartrees/Bohr)
 Number     Number              X              Y              Z
 -------------------------------------------------------------------
      1        6          -0.003199897    0.004723725    0.003189767
      2        1           0.004592413    0.000322192    0.008074360
      3        1           0.005347526   -0.000626581   -0.008420859
      4        1          -0.008678698   -0.003590505   -0.000388241
      5        1           0.000540226    0.000459967    0.000346095
      6        8           0.005277086   -0.003891500   -0.009433035
      7        1          -0.003878656    0.002602702    0.006631913
 -------------------------------------------------------------------
 Cartesian Forces:  Max     0.009433035 RMS     0.004955880

 GradGradGradGradGradGradGradGradGradGradGradGradGradGradGradGradGradGrad
 Berny optimization.
 Internal  Forces:  Max     0.009983614 RMS     0.005231644
 Search for a saddle point.
 Step number   2 out of a maximum of   28
 All quantities printed in internal units (Hartrees-Bohrs-Radians)
 Swaping is turned off.
 Update second derivatives using D2CorX and points    1    2
 The second derivative matrix:
                          R1        R2        R3        R4        R5
           R1           0.39100
           R2           0.00115   0.39279
           R3           0.00112   0.00113   0.39104
           R4           0.00092   0.00010   0.00093   0.16798
           R5           0.00023   0.00013   0.00015   0.10843   0.01377
           R6          -0.00004   0.00003  -0.00005   0.00548  -0.00886
           A1           0.00720   0.00715  -0.00351  -0.01213   0.00719
           A2           0.00759  -0.00351   0.00758  -0.01232   0.00699
           A3           0.00150  -0.00625  -0.00613   0.01347  -0.00635
           A4          -0.00350   0.00713   0.00720  -0.01214   0.00718
           A5          -0.00654   0.00184  -0.00649   0.00960  -0.00833
           A6          -0.00616  -0.00625   0.00145   0.01348  -0.00637
           A7           0.00023  -0.00118   0.00032   0.00262  -0.01040
           A8           0.00135  -0.00309   0.00132   0.00127   0.00000
           A9          -0.00166   0.00022   0.00190   0.00025   0.00034
           D1           0.00036  -0.00524   0.00590   0.00078   0.00079
           D2           0.00599   0.00027  -0.00572   0.00032   0.00040
           D3          -0.00561   0.00577  -0.00005  -0.00025   0.00014
                          R6        A1        A2        A3        A4
           R6           0.55915
           A1           0.00116   0.05970
           A2           0.00103  -0.00491   0.06089
           A3          -0.00068  -0.02546  -0.02570   0.07036
           A4           0.00115  -0.00427  -0.00489   0.00005   0.05973
           A5          -0.00192  -0.02502   0.00044  -0.00975  -0.02505
           A6          -0.00068   0.00002  -0.02574  -0.00956  -0.02548
           A7           0.00271   0.00028   0.00101  -0.00193   0.00027
           A8           0.00039  -0.00222   0.00944  -0.00025  -0.00222
           A9           0.00005  -0.00468  -0.00032  -0.00082   0.00403
           D1           0.00022  -0.02131   0.01969   0.00084  -0.00025
           D2           0.00007   0.01980  -0.00040   0.00666  -0.02061
           D3          -0.00006  -0.00040  -0.02033  -0.00502   0.02065
                          A5        A6        A7        A8        A9
           A5           0.06887
           A6          -0.00970   0.07035
           A7           0.00180  -0.00187   0.07185
           A8          -0.00424  -0.00028  -0.00591   0.01972
           A9           0.00018   0.00079  -0.00010  -0.00006   0.00362
           D1          -0.00483   0.00491   0.00024   0.00244   0.00081
           D2           0.00024  -0.00670  -0.00011  -0.00008  -0.00413
           D3           0.00510  -0.00093  -0.00074  -0.00242   0.00085
                          D1        D2        D3
           D1           0.01810
           D2          -0.00919   0.01944
           D3          -0.00917  -0.00914   0.01821
     Eigenvalues ---   -0.04906  -0.00036   0.00349   0.01777   0.06824
     Eigenvalues ---    0.06991   0.07428   0.10198   0.10268   0.10379
     Eigenvalues ---    0.22688   0.39077   0.39178   0.39493   0.55936
     Eigenvalues --- 1000.000001000.000001000.00000
 Eigenvectors required to have negative eigenvalues:
                          R5        R4        A7        A3        A4
   1                    0.86207  -0.45886   0.08736   0.08240  -0.08031
                          A5        A6        A2        A1        A8
   1                    0.07959   0.07958  -0.07597  -0.07520   0.02699
 RFO step:  Lambda0=7.869081755D-05 Lambda=-3.10384703D-03.
 Linear search not attempted -- option 19 set.
 Maximum step size (   0.300) exceeded in Quadratic search.
    -- Step size scaled by   0.389
 Iteration  1 RMS(Cart)=  0.06316966 RMS(Int)=  0.00504486
 Iteration  2 RMS(Cart)=  0.00403444 RMS(Int)=  0.00013777
 Iteration  3 RMS(Cart)=  0.00001393 RMS(Int)=  0.00013645
 Iteration  4 RMS(Cart)=  0.00000000 RMS(Int)=  0.00013645
 Variable       Old X    -DE/DX   Delta X   Delta X   Delta X     New X
                                 (Linear)    (Quad)   (Total)
    R1        2.03338   0.00851   0.00000   0.00750   0.00750   2.04089
    R2        2.03359   0.00840   0.00000   0.00811   0.00811   2.04170
    R3        2.03344   0.00865   0.00000   0.00805   0.00805   2.04150
    R4        2.25490   0.00150   0.00000  -0.00429  -0.00429   2.25061
    R5        2.49657   0.00162   0.00000   0.02201   0.02201   2.51858
    R6        1.82123   0.00600   0.00000   0.00466   0.00466   1.82589
    A1        1.92588   0.00438   0.00000   0.00973   0.00940   1.93529
    A2        1.93099   0.00427   0.00000   0.01335   0.01339   1.94439
    A3        1.90270  -0.00342   0.00000  -0.00383  -0.00396   1.89874
    A4        1.93176   0.00436   0.00000   0.01330   0.01328   1.94504
    A5        1.87724  -0.00684   0.00000  -0.02103  -0.02118   1.85606
    A6        1.89394  -0.00334   0.00000  -0.01319  -0.01318   1.88076
    A7        1.84757  -0.00998   0.00000  -0.04795  -0.04795   1.79962
    A8        3.17791   0.00286   0.00000   0.02898   0.02892   3.20683
    A9        3.01418   0.00002   0.00000  -0.10268  -0.10271   2.91148
    D1        0.90478   0.00007   0.00000  -0.15556  -0.15588   0.74890
    D2        2.98173   0.00006   0.00000  -0.16610  -0.16583   2.81590
    D3       -1.18689  -0.00037   0.00000  -0.15079  -0.15074  -1.33763
         Item               Value     Threshold  Converged?
 Maximum Force            0.009984     0.000450     NO 
 RMS     Force            0.005232     0.000300     NO 
 Maximum Displacement     0.148950     0.001800     NO 
 RMS     Displacement     0.064126     0.001200     NO 
 Predicted change in Energy=-1.006667D-03
 GradGradGradGradGradGradGradGradGradGradGradGradGradGradGradGradGradGrad

                          Input orientation:                          
 ---------------------------------------------------------------------
 Center     Atomic      Atomic             Coordinates (Angstroms)
 Number     Number       Type             X           Y           Z
 ---------------------------------------------------------------------
      1          6           0        0.730181    1.756789   -0.874142
      2          1           0        1.109778    2.152566    0.056259
      3          1           0        1.158556    2.278320   -1.717831
      4          1           0       -0.349510    1.781033   -0.901610
      5          1           0        1.070699    0.619980   -0.974776
      6          8           0        1.525709   -0.631373   -0.916679
      7          1           0        1.347233   -0.887240   -0.002209
 ---------------------------------------------------------------------
                    Distance matrix (angstroms):
                    1          2          3          4          5
     1  C    0.000000
     2  H    1.079990   0.000000
     3  H    1.080422   1.779210   0.000000
     4  H    1.080313   1.784677   1.785434   0.000000
     5  H    1.190972   1.847533   1.819325   1.835863   0.000000
     6  O    2.517536   2.978241   3.040224   3.055548   1.332776
     7  H    2.851650   3.049627   3.605513   3.287482   1.814957
                    6          7
     6  O    0.000000
     7  H    0.966217   0.000000
 Stoichiometry    CH5O(2)
 Framework group  C1[X(CH5O)]
 Deg. of freedom    15
 Full point group                 C1      NOp   1
 Largest Abelian subgroup         C1      NOp   1
 Largest concise Abelian subgroup C1      NOp   1
                         Standard orientation:                         
 ---------------------------------------------------------------------
 Center     Atomic      Atomic             Coordinates (Angstroms)
 Number     Number       Type             X           Y           Z
 ---------------------------------------------------------------------
      1          6           0       -1.213351    0.010129   -0.000160
      2          1           0       -1.447638    0.786974   -0.712901
      3          1           0       -1.604642   -0.942639   -0.326406
      4          1           0       -1.565208    0.263677    0.989277
      5          1           0       -0.030289   -0.114895    0.055951
      6          8           0        1.301288   -0.110621   -0.000407
      7          1           0        1.517574    0.831077   -0.001709
 ---------------------------------------------------------------------
 Rotational constants (GHZ):    124.4832406      9.0906570      8.9550769
 Standard basis: 6-311++G(d,p) (5D, 7F)
 There are    79 symmetry adapted basis functions of A   symmetry.
 Integral buffers will be    262144 words long.
 Raffenetti 2 integral format.
 Two-electron integral symmetry is turned on.
    79 basis functions,   117 primitive gaussians,    81 cartesian basis functions
    10 alpha electrons        9 beta electrons
       nuclear repulsion energy        36.9723375080 Hartrees.
 NAtoms=    7 NActive=    7 NUniq=    7 SFac= 7.50D-01 NAtFMM=   80 NAOKFM=F Big=F
 One-electron integrals computed using PRISM.
 NBasis=    79 RedAO= T  NBF=    79
 NBsUse=    79 1.00D-06 NBFU=    79
 Initial guess read from the read-write file.
 B after Tr=     0.000000    0.000000    0.000000
         Rot=    1.000000    0.000000    0.000000    0.000000 Ang=   0.00 deg.
 Initial guess orbital symmetries:
 Alpha Orbitals:
       Occupied  (A) (A) (A) (A) (A) (A) (A) (A) (A) (A)
       Virtual   (A) (A) (A) (A) (A) (A) (A) (A) (A) (A) (A) (A)
                 (A) (A) (A) (A) (A) (A) (A) (A) (A) (A) (A) (A)
                 (A) (A) (A) (A) (A) (A) (A) (A) (A) (A) (A) (A)
                 (A) (A) (A) (A) (A) (A) (A) (A) (A) (A) (A) (A)
                 (A) (A) (A) (A) (A) (A) (A) (A) (A) (A) (A) (A)
                 (A) (A) (A) (A) (A) (A) (A) (A) (A)
 Beta  Orbitals:
       Occupied  (A) (A) (A) (A) (A) (A) (A) (A) (A)
       Virtual   (A) (A) (A) (A) (A) (A) (A) (A) (A) (A) (A) (A)
                 (A) (A) (A) (A) (A) (A) (A) (A) (A) (A) (A) (A)
                 (A) (A) (A) (A) (A) (A) (A) (A) (A) (A) (A) (A)
                 (A) (A) (A) (A) (A) (A) (A) (A) (A) (A) (A) (A)
                 (A) (A) (A) (A) (A) (A) (A) (A) (A) (A) (A) (A)
                 (A) (A) (A) (A) (A) (A) (A) (A) (A) (A)
 Initial guess <Sx>= 0.0000 <Sy>= 0.0000 <Sz>= 0.5000 <S**2>= 0.8479 S= 0.5478
 Harris functional with IExCor= 1009 diagonalized for initial guess.
 ExpMin= 3.60D-02 ExpMax= 8.59D+03 ExpMxC= 1.30D+03 IAcc=3 IRadAn=         0 AccDes= 0.00D+00
 HarFok:  IExCor= 1009 AccDes= 0.00D+00 IRadAn=         0 IDoV= 1
 ScaDFX=  1.000000  1.000000  1.000000  1.000000
 FoFCou: FMM=F IPFlag=           0 FMFlag=      100000 FMFlg1=           0
         NFxFlg=           0 DoJE=T BraDBF=F KetDBF=T FulRan=T
         Omega=  0.000000  0.000000  1.000000  0.000000  0.000000 ICntrl=     500 IOpCl=  0
         NMat0=    1 NMatS0=    1 NMatT0=    0 NMatD0=    1 NMtDS0=    0 NMtDT0=    0
         I1Cent=           4 NGrid=           0.
 Petite list used in FoFCou.
 Requested convergence on RMS density matrix=1.00D-08 within 128 cycles.
 Requested convergence on MAX density matrix=1.00D-06.
 Requested convergence on             energy=1.00D-06.
 No special actions if energy rises.
 Keep R1 and R2 ints in memory in canonical form, NReq=12028007.
 SCF Done:  E(UM062X) =  -116.213205482     A.U. after   16 cycles
             Convg  =    0.6971D-08             -V/T =  2.0030
 <Sx>= 0.0000 <Sy>= 0.0000 <Sz>= 0.5000 <S**2>= 0.7585 S= 0.5043
 <L.S>= 0.000000000000E+00
 Annihilation of the first spin contaminant:
 S**2 before annihilation     0.7585,   after     0.7500
 Calling FoFJK, ICntrl=      2127 FMM=F ISym2X=0 I1Cent= 0 IOpClX= 1 NMat=1 NMatS=1 NMatT=0.
 ***** Axes restored to original set *****
 -------------------------------------------------------------------
 Center     Atomic                   Forces (Hartrees/Bohr)
 Number     Number              X              Y              Z
 -------------------------------------------------------------------
      1        6          -0.002016744    0.003141319    0.001722820
      2        1           0.002710334   -0.000156133    0.005179666
      3        1           0.003314205   -0.000294806   -0.005190707
      4        1          -0.005279711   -0.002151097   -0.000344561
      5        1           0.000721365    0.000728363    0.000525564
      6        8           0.002418156   -0.003523259   -0.005874295
      7        1          -0.001867605    0.002255614    0.003981513
 -------------------------------------------------------------------
 Cartesian Forces:  Max     0.005874295 RMS     0.003088084

 GradGradGradGradGradGradGradGradGradGradGradGradGradGradGradGradGradGrad
 Berny optimization.
 Internal  Forces:  Max     0.006350863 RMS     0.003255278
 Search for a saddle point.
 Step number   3 out of a maximum of   28
 All quantities printed in internal units (Hartrees-Bohrs-Radians)
 Swaping is turned off.
 Update second derivatives using D2CorX and points    1    2    3
 The second derivative matrix:
                          R1        R2        R3        R4        R5
           R1           0.39099
           R2           0.00113   0.39278
           R3           0.00111   0.00113   0.39106
           R4           0.00092   0.00009   0.00091   0.16799
           R5           0.00018   0.00010   0.00013   0.10843   0.01365
           R6          -0.00004   0.00004  -0.00002   0.00546  -0.00885
           A1           0.00717   0.00713  -0.00353  -0.01211   0.00712
           A2           0.00756  -0.00352   0.00759  -0.01234   0.00694
           A3           0.00151  -0.00624  -0.00613   0.01347  -0.00633
           A4          -0.00352   0.00712   0.00720  -0.01214   0.00712
           A5          -0.00652   0.00183  -0.00655   0.00965  -0.00830
           A6          -0.00614  -0.00624   0.00145   0.01349  -0.00632
           A7           0.00030  -0.00114   0.00030   0.00265  -0.01022
           A8           0.00131  -0.00311   0.00134   0.00125  -0.00011
           A9          -0.00151   0.00027   0.00180   0.00037   0.00065
           D1           0.00058  -0.00515   0.00579   0.00092   0.00126
           D2           0.00623   0.00037  -0.00584   0.00047   0.00090
           D3          -0.00540   0.00585  -0.00019  -0.00009   0.00056
                          R6        A1        A2        A3        A4
           R6           0.55919
           A1           0.00114   0.05967
           A2           0.00105  -0.00495   0.06088
           A3          -0.00068  -0.02545  -0.02570   0.07036
           A4           0.00117  -0.00431  -0.00491   0.00006   0.05971
           A5          -0.00201  -0.02496   0.00041  -0.00975  -0.02506
           A6          -0.00070   0.00006  -0.02573  -0.00956  -0.02546
           A7           0.00263   0.00041   0.00104  -0.00195   0.00033
           A8           0.00043  -0.00230   0.00943  -0.00023  -0.00226
           A9          -0.00016  -0.00439  -0.00031  -0.00086   0.00411
           D1          -0.00006  -0.02092   0.01974   0.00078  -0.00011
           D2          -0.00023   0.02022  -0.00035   0.00660  -0.02046
           D3          -0.00036  -0.00001  -0.02032  -0.00507   0.02076
                          A5        A6        A7        A8        A9
           A5           0.06907
           A6          -0.00967   0.07034
           A7           0.00192  -0.00190   0.07174
           A8          -0.00431  -0.00026  -0.00584   0.01968
           A9           0.00057   0.00077  -0.00017  -0.00002   0.00391
           D1          -0.00438   0.00485   0.00004   0.00256   0.00094
           D2           0.00073  -0.00676  -0.00033   0.00005  -0.00399
           D3           0.00563  -0.00096  -0.00083  -0.00237   0.00124
                          D1        D2        D3
           D1           0.01792
           D2          -0.00937   0.01926
           D3          -0.00899  -0.00893   0.01875
     Eigenvalues ---   -0.04912   0.00006   0.00352   0.01773   0.06817
     Eigenvalues ---    0.06985   0.07431   0.10197   0.10264   0.10361
     Eigenvalues ---    0.22689   0.39078   0.39177   0.39490   0.55940
     Eigenvalues --- 1000.000001000.000001000.00000
 Eigenvectors required to have negative eigenvalues:
                          R5        R4        A7        A3        A4
   1                    0.86210  -0.45860   0.08635   0.08457  -0.08115
                          A5        A6        A2        A1        A8
   1                    0.08014   0.07959  -0.07356  -0.07246   0.02763
 RFO step:  Lambda0=2.089659119D-05 Lambda=-1.30227378D-03.
 Linear search not attempted -- option 19 set.
 Iteration  1 RMS(Cart)=  0.05698618 RMS(Int)=  0.00420435
 Iteration  2 RMS(Cart)=  0.00324277 RMS(Int)=  0.00024309
 Iteration  3 RMS(Cart)=  0.00001006 RMS(Int)=  0.00024277
 Iteration  4 RMS(Cart)=  0.00000000 RMS(Int)=  0.00024277
 Variable       Old X    -DE/DX   Delta X   Delta X   Delta X     New X
                                 (Linear)    (Quad)   (Total)
    R1        2.04089   0.00536   0.00000   0.01244   0.01244   2.05332
    R2        2.04170   0.00521   0.00000   0.01244   0.01244   2.05415
    R3        2.04150   0.00524   0.00000   0.01198   0.01198   2.05348
    R4        2.25061   0.00100   0.00000  -0.00558  -0.00559   2.24502
    R5        2.51858   0.00130   0.00000   0.03412   0.03412   2.55270
    R6        1.82589   0.00352   0.00000   0.00680   0.00680   1.83269
    A1        1.93529   0.00274   0.00000   0.02138   0.02116   1.95645
    A2        1.94439   0.00253   0.00000   0.01946   0.01882   1.96320
    A3        1.89874  -0.00232   0.00000  -0.01566  -0.01603   1.88271
    A4        1.94504   0.00273   0.00000   0.02192   0.02177   1.96681
    A5        1.85606  -0.00410   0.00000  -0.03203  -0.03219   1.82387
    A6        1.88076  -0.00220   0.00000  -0.01993  -0.02025   1.86051
    A7        1.79962  -0.00635   0.00000  -0.07924  -0.07924   1.72038
    A8        3.20683   0.00190   0.00000   0.06036   0.06045   3.26728
    A9        2.91148   0.00008   0.00000  -0.01454  -0.01456   2.89692
    D1        0.74890  -0.00015   0.00000  -0.10025  -0.09989   0.64901
    D2        2.81590   0.00004   0.00000  -0.09185  -0.09181   2.72409
    D3       -1.33763  -0.00020   0.00000  -0.08715  -0.08756  -1.42519
         Item               Value     Threshold  Converged?
 Maximum Force            0.006351     0.000450     NO 
 RMS     Force            0.003255     0.000300     NO 
 Maximum Displacement     0.176806     0.001800     NO 
 RMS     Displacement     0.057073     0.001200     NO 
 Predicted change in Energy=-6.672814D-04
 GradGradGradGradGradGradGradGradGradGradGradGradGradGradGradGradGradGrad

                          Input orientation:                          
 ---------------------------------------------------------------------
 Center     Atomic      Atomic             Coordinates (Angstroms)
 Number     Number       Type             X           Y           Z
 ---------------------------------------------------------------------
      1          6           0        0.730204    1.754002   -0.871463
      2          1           0        1.117492    2.104511    0.081316
      3          1           0        1.173972    2.281224   -1.712113
      4          1           0       -0.355978    1.752979   -0.903476
      5          1           0        1.074960    0.625874   -1.012357
      6          8           0        1.496780   -0.654836   -0.931112
      7          1           0        1.355216   -0.793678    0.018218
 ---------------------------------------------------------------------
                    Distance matrix (angstroms):
                    1          2          3          4          5
     1  C    0.000000
     2  H    1.086570   0.000000
     3  H    1.087007   1.802999   0.000000
     4  H    1.086655   1.806794   1.809333   0.000000
     5  H    1.188016   1.839646   1.799902   1.824775   0.000000
     6  O    2.528576   2.963590   3.055260   3.038264   1.350833
     7  H    2.769991   2.908607   3.532976   3.203618   1.776445
                    6          7
     6  O    0.000000
     7  H    0.969817   0.000000
 Stoichiometry    CH5O(2)
 Framework group  C1[X(CH5O)]
 Deg. of freedom    15
 Full point group                 C1      NOp   1
 Largest Abelian subgroup         C1      NOp   1
 Largest concise Abelian subgroup C1      NOp   1
                         Standard orientation:                         
 ---------------------------------------------------------------------
 Center     Atomic      Atomic             Coordinates (Angstroms)
 Number     Number       Type             X           Y           Z
 ---------------------------------------------------------------------
      1          6           0       -1.216301    0.008491   -0.000003
      2          1           0       -1.415831    0.861274   -0.643108
      3          1           0       -1.607566   -0.916914   -0.414878
      4          1           0       -1.536466    0.176845    1.024677
      5          1           0       -0.040072   -0.154858    0.034433
      6          8           0        1.309546   -0.108960    0.000188
      7          1           0        1.421369    0.854385   -0.002608
 ---------------------------------------------------------------------
 Rotational constants (GHZ):    120.8333267      9.0898303      8.9477097
 Standard basis: 6-311++G(d,p) (5D, 7F)
 There are    79 symmetry adapted basis functions of A   symmetry.
 Integral buffers will be    262144 words long.
 Raffenetti 2 integral format.
 Two-electron integral symmetry is turned on.
    79 basis functions,   117 primitive gaussians,    81 cartesian basis functions
    10 alpha electrons        9 beta electrons
       nuclear repulsion energy        36.8809236401 Hartrees.
 NAtoms=    7 NActive=    7 NUniq=    7 SFac= 7.50D-01 NAtFMM=   80 NAOKFM=F Big=F
 One-electron integrals computed using PRISM.
 NBasis=    79 RedAO= T  NBF=    79
 NBsUse=    79 1.00D-06 NBFU=    79
 Initial guess read from the read-write file.
 B after Tr=     0.000000    0.000000    0.000000
         Rot=    1.000000    0.000000    0.000000    0.000000 Ang=   0.00 deg.
 Initial guess orbital symmetries:
 Alpha Orbitals:
       Occupied  (A) (A) (A) (A) (A) (A) (A) (A) (A) (A)
       Virtual   (A) (A) (A) (A) (A) (A) (A) (A) (A) (A) (A) (A)
                 (A) (A) (A) (A) (A) (A) (A) (A) (A) (A) (A) (A)
                 (A) (A) (A) (A) (A) (A) (A) (A) (A) (A) (A) (A)
                 (A) (A) (A) (A) (A) (A) (A) (A) (A) (A) (A) (A)
                 (A) (A) (A) (A) (A) (A) (A) (A) (A) (A) (A) (A)
                 (A) (A) (A) (A) (A) (A) (A) (A) (A)
 Beta  Orbitals:
       Occupied  (A) (A) (A) (A) (A) (A) (A) (A) (A)
       Virtual   (A) (A) (A) (A) (A) (A) (A) (A) (A) (A) (A) (A)
                 (A) (A) (A) (A) (A) (A) (A) (A) (A) (A) (A) (A)
                 (A) (A) (A) (A) (A) (A) (A) (A) (A) (A) (A) (A)
                 (A) (A) (A) (A) (A) (A) (A) (A) (A) (A) (A) (A)
                 (A) (A) (A) (A) (A) (A) (A) (A) (A) (A) (A) (A)
                 (A) (A) (A) (A) (A) (A) (A) (A) (A) (A)
 Initial guess <Sx>= 0.0000 <Sy>= 0.0000 <Sz>= 0.5000 <S**2>= 0.7586 S= 0.5043
 Harris functional with IExCor= 1009 diagonalized for initial guess.
 ExpMin= 3.60D-02 ExpMax= 8.59D+03 ExpMxC= 1.30D+03 IAcc=3 IRadAn=         0 AccDes= 0.00D+00
 HarFok:  IExCor= 1009 AccDes= 0.00D+00 IRadAn=         0 IDoV= 1
 ScaDFX=  1.000000  1.000000  1.000000  1.000000
 FoFCou: FMM=F IPFlag=           0 FMFlag=      100000 FMFlg1=           0
         NFxFlg=           0 DoJE=T BraDBF=F KetDBF=T FulRan=T
         Omega=  0.000000  0.000000  1.000000  0.000000  0.000000 ICntrl=     500 IOpCl=  0
         NMat0=    1 NMatS0=    1 NMatT0=    0 NMatD0=    1 NMtDS0=    0 NMtDT0=    0
         I1Cent=           4 NGrid=           0.
 Petite list used in FoFCou.
 Requested convergence on RMS density matrix=1.00D-08 within 128 cycles.
 Requested convergence on MAX density matrix=1.00D-06.
 Requested convergence on             energy=1.00D-06.
 No special actions if energy rises.
 Keep R1 and R2 ints in memory in canonical form, NReq=12028007.
 SCF Done:  E(UM062X) =  -116.213859176     A.U. after   14 cycles
             Convg  =    0.7863D-08             -V/T =  2.0033
 <Sx>= 0.0000 <Sy>= 0.0000 <Sz>= 0.5000 <S**2>= 0.7586 S= 0.5043
 <L.S>= 0.000000000000E+00
 Annihilation of the first spin contaminant:
 S**2 before annihilation     0.7586,   after     0.7500
 Calling FoFJK, ICntrl=      2127 FMM=F ISym2X=0 I1Cent= 0 IOpClX= 1 NMat=1 NMatS=1 NMatT=0.
 ***** Axes restored to original set *****
 -------------------------------------------------------------------
 Center     Atomic                   Forces (Hartrees/Bohr)
 Number     Number              X              Y              Z
 -------------------------------------------------------------------
      1        6          -0.000050118   -0.000505039    0.000261891
      2        1           0.000129690    0.000300003    0.000321727
      3        1          -0.000081302    0.000340011   -0.000365834
      4        1          -0.000338364    0.000185336   -0.000208134
      5        1           0.000257149    0.000665638   -0.000049517
      6        8           0.000005929   -0.000941533    0.000036150
      7        1           0.000077016   -0.000044415    0.000003717
 -------------------------------------------------------------------
 Cartesian Forces:  Max     0.000941533 RMS     0.000337505

 GradGradGradGradGradGradGradGradGradGradGradGradGradGradGradGradGradGrad
 Berny optimization.
 Internal  Forces:  Max     0.000964293 RMS     0.000340659
 Search for a saddle point.
 Step number   4 out of a maximum of   28
 All quantities printed in internal units (Hartrees-Bohrs-Radians)
 Swaping is turned off.
 Update second derivatives using D2CorX and points    2    3    4
 The second derivative matrix:
                          R1        R2        R3        R4        R5
           R1           0.39083
           R2           0.00098   0.39264
           R3           0.00097   0.00099   0.39093
           R4           0.00093   0.00009   0.00090   0.16817
           R5          -0.00022  -0.00030  -0.00024   0.10839   0.01260
           R6          -0.00010  -0.00001  -0.00007   0.00539  -0.00899
           A1           0.00700   0.00696  -0.00367  -0.01231   0.00671
           A2           0.00738  -0.00369   0.00744  -0.01248   0.00652
           A3           0.00160  -0.00617  -0.00608   0.01372  -0.00617
           A4          -0.00367   0.00699   0.00710  -0.01245   0.00682
           A5          -0.00627   0.00205  -0.00637   0.01005  -0.00777
           A6          -0.00599  -0.00611   0.00155   0.01376  -0.00601
           A7           0.00099  -0.00053   0.00082   0.00343  -0.00869
           A8           0.00076  -0.00362   0.00089   0.00078  -0.00139
           A9          -0.00125   0.00050   0.00199   0.00074   0.00121
           D1           0.00162  -0.00420   0.00661   0.00201   0.00363
           D2           0.00722   0.00127  -0.00505   0.00151   0.00318
           D3          -0.00446   0.00670   0.00055   0.00088   0.00272
                          R6        A1        A2        A3        A4
           R6           0.55919
           A1           0.00115   0.05970
           A2           0.00104  -0.00497   0.06081
           A3          -0.00075  -0.02564  -0.02582   0.07068
           A4           0.00123  -0.00412  -0.00481  -0.00031   0.06011
           A5          -0.00207  -0.02515   0.00032  -0.00929  -0.02555
           A6          -0.00075  -0.00009  -0.02580  -0.00926  -0.02580
           A7           0.00258   0.00026   0.00111  -0.00117  -0.00043
           A8           0.00041  -0.00236   0.00923  -0.00063  -0.00193
           A9          -0.00021  -0.00454  -0.00036  -0.00044   0.00368
           D1          -0.00010  -0.02105   0.01991   0.00185  -0.00112
           D2          -0.00026   0.02010  -0.00018   0.00761  -0.02141
           D3          -0.00039  -0.00011  -0.02014  -0.00413   0.01989
                          A5        A6        A7        A8        A9
           A5           0.06963
           A6          -0.00927   0.07061
           A7           0.00272  -0.00132   0.07246
           A8          -0.00458  -0.00048  -0.00568   0.01910
           A9           0.00106   0.00111   0.00047  -0.00018   0.00431
           D1          -0.00336   0.00561   0.00073   0.00305   0.00170
           D2           0.00169  -0.00605   0.00031   0.00053  -0.00327
           D3           0.00650  -0.00030  -0.00030  -0.00187   0.00189
                          D1        D2        D3
           D1           0.01838
           D2          -0.00896   0.01961
           D3          -0.00871  -0.00870   0.01887
     Eigenvalues ---   -0.04984   0.00135   0.00365   0.01734   0.06819
     Eigenvalues ---    0.06981   0.07440   0.10195   0.10306   0.10407
     Eigenvalues ---    0.22717   0.39078   0.39173   0.39447   0.55940
     Eigenvalues --- 1000.000001000.000001000.00000
 Eigenvectors required to have negative eigenvalues:
                          R5        R4        A3        A5        A6
   1                    0.86129  -0.45524   0.08633   0.07931   0.07912
                          A4        A7        A1        A2        D2
   1                   -0.07785   0.07630  -0.06898  -0.06773  -0.05615
 RFO step:  Lambda0=1.160194197D-05 Lambda=-3.32404042D-05.
 Linear search not attempted -- option 19 set.
 Iteration  1 RMS(Cart)=  0.01511266 RMS(Int)=  0.00063657
 Iteration  2 RMS(Cart)=  0.00077644 RMS(Int)=  0.00009616
 Iteration  3 RMS(Cart)=  0.00000072 RMS(Int)=  0.00009616
 Variable       Old X    -DE/DX   Delta X   Delta X   Delta X     New X
                                 (Linear)    (Quad)   (Total)
    R1        2.05332   0.00043   0.00000   0.00120   0.00120   2.05452
    R2        2.05415   0.00039   0.00000   0.00126   0.00126   2.05540
    R3        2.05348   0.00034   0.00000   0.00085   0.00085   2.05433
    R4        2.24502   0.00042   0.00000   0.01199   0.01199   2.25701
    R5        2.55270   0.00096   0.00000  -0.01454  -0.01454   2.53817
    R6        1.83269   0.00000   0.00000  -0.00037  -0.00037   1.83232
    A1        1.95645  -0.00017   0.00000   0.00239   0.00236   1.95881
    A2        1.96320  -0.00003   0.00000   0.00048   0.00065   1.96385
    A3        1.88271   0.00024   0.00000   0.00160   0.00166   1.88437
    A4        1.96681  -0.00039   0.00000  -0.00334  -0.00348   1.96333
    A5        1.82387   0.00025   0.00000   0.00096   0.00088   1.82475
    A6        1.86051   0.00017   0.00000  -0.00206  -0.00206   1.85845
    A7        1.72038   0.00012   0.00000   0.00037   0.00037   1.72075
    A8        3.26728   0.00030   0.00000   0.01734   0.01729   3.28457
    A9        2.89692   0.00025   0.00000   0.07778   0.07779   2.97471
    D1        0.64901  -0.00003   0.00000  -0.02735  -0.02752   0.62150
    D2        2.72409   0.00008   0.00000  -0.01271  -0.01280   2.71129
    D3       -1.42519  -0.00014   0.00000  -0.02689  -0.02662  -1.45181
         Item               Value     Threshold  Converged?
 Maximum Force            0.000964     0.000450     NO 
 RMS     Force            0.000341     0.000300     NO 
 Maximum Displacement     0.035397     0.001800     NO 
 RMS     Displacement     0.015145     0.001200     NO 
 Predicted change in Energy=-1.095882D-05
 GradGradGradGradGradGradGradGradGradGradGradGradGradGradGradGradGradGrad

                          Input orientation:                          
 ---------------------------------------------------------------------
 Center     Atomic      Atomic             Coordinates (Angstroms)
 Number     Number       Type             X           Y           Z
 ---------------------------------------------------------------------
      1          6           0        0.733403    1.756240   -0.869707
      2          1           0        1.113453    2.116675    0.083007
      3          1           0        1.170124    2.285349   -1.713716
      4          1           0       -0.353000    1.740790   -0.905634
      5          1           0        1.093050    0.625474   -1.005794
      6          8           0        1.478049   -0.659401   -0.935821
      7          1           0        1.357567   -0.795052    0.016678
 ---------------------------------------------------------------------
                    Distance matrix (angstroms):
                    1          2          3          4          5
     1  C    0.000000
     2  H    1.087206   0.000000
     3  H    1.087673   1.805513   0.000000
     4  H    1.087107   1.808088   1.808161   0.000000
     5  H    1.194360   1.846506   1.806178   1.828940   0.000000
     6  O    2.528673   2.979520   3.061289   3.019035   1.343140
     7  H    2.772065   2.922695   3.538116   3.194869   1.770116
                    6          7
     6  O    0.000000
     7  H    0.969624   0.000000
 Stoichiometry    CH5O(2)
 Framework group  C1[X(CH5O)]
 Deg. of freedom    15
 Full point group                 C1      NOp   1
 Largest Abelian subgroup         C1      NOp   1
 Largest concise Abelian subgroup C1      NOp   1
                         Standard orientation:                         
 ---------------------------------------------------------------------
 Center     Atomic      Atomic             Coordinates (Angstroms)
 Number     Number       Type             X           Y           Z
 ---------------------------------------------------------------------
      1          6           0       -1.216734    0.008746    0.000240
      2          1           0       -1.433887    0.878460   -0.614950
      3          1           0       -1.614690   -0.908267   -0.428420
      4          1           0       -1.514715    0.146877    1.036545
      5          1           0       -0.033239   -0.151868    0.006496
      6          8           0        1.309199   -0.108951   -0.000100
      7          1           0        1.423344    0.853931   -0.000315
 ---------------------------------------------------------------------
 Rotational constants (GHZ):    120.7734175      9.0879117      8.9453012
 Standard basis: 6-311++G(d,p) (5D, 7F)
 There are    79 symmetry adapted basis functions of A   symmetry.
 Integral buffers will be    262144 words long.
 Raffenetti 2 integral format.
 Two-electron integral symmetry is turned on.
    79 basis functions,   117 primitive gaussians,    81 cartesian basis functions
    10 alpha electrons        9 beta electrons
       nuclear repulsion energy        36.8753471068 Hartrees.
 NAtoms=    7 NActive=    7 NUniq=    7 SFac= 7.50D-01 NAtFMM=   80 NAOKFM=F Big=F
 One-electron integrals computed using PRISM.
 NBasis=    79 RedAO= T  NBF=    79
 NBsUse=    79 1.00D-06 NBFU=    79
 Initial guess read from the read-write file.
 B after Tr=     0.000000    0.000000    0.000000
         Rot=    1.000000    0.000000    0.000000    0.000000 Ang=   0.00 deg.
 Initial guess orbital symmetries:
 Alpha Orbitals:
       Occupied  (A) (A) (A) (A) (A) (A) (A) (A) (A) (A)
       Virtual   (A) (A) (A) (A) (A) (A) (A) (A) (A) (A) (A) (A)
                 (A) (A) (A) (A) (A) (A) (A) (A) (A) (A) (A) (A)
                 (A) (A) (A) (A) (A) (A) (A) (A) (A) (A) (A) (A)
                 (A) (A) (A) (A) (A) (A) (A) (A) (A) (A) (A) (A)
                 (A) (A) (A) (A) (A) (A) (A) (A) (A) (A) (A) (A)
                 (A) (A) (A) (A) (A) (A) (A) (A) (A)
 Beta  Orbitals:
       Occupied  (A) (A) (A) (A) (A) (A) (A) (A) (A)
       Virtual   (A) (A) (A) (A) (A) (A) (A) (A) (A) (A) (A) (A)
                 (A) (A) (A) (A) (A) (A) (A) (A) (A) (A) (A) (A)
                 (A) (A) (A) (A) (A) (A) (A) (A) (A) (A) (A) (A)
                 (A) (A) (A) (A) (A) (A) (A) (A) (A) (A) (A) (A)
                 (A) (A) (A) (A) (A) (A) (A) (A) (A) (A) (A) (A)
                 (A) (A) (A) (A) (A) (A) (A) (A) (A) (A)
 Initial guess <Sx>= 0.0000 <Sy>= 0.0000 <Sz>= 0.5000 <S**2>= 0.7586 S= 0.5043
 Harris functional with IExCor= 1009 diagonalized for initial guess.
 ExpMin= 3.60D-02 ExpMax= 8.59D+03 ExpMxC= 1.30D+03 IAcc=3 IRadAn=         0 AccDes= 0.00D+00
 HarFok:  IExCor= 1009 AccDes= 0.00D+00 IRadAn=         0 IDoV= 1
 ScaDFX=  1.000000  1.000000  1.000000  1.000000
 FoFCou: FMM=F IPFlag=           0 FMFlag=      100000 FMFlg1=           0
         NFxFlg=           0 DoJE=T BraDBF=F KetDBF=T FulRan=T
         Omega=  0.000000  0.000000  1.000000  0.000000  0.000000 ICntrl=     500 IOpCl=  0
         NMat0=    1 NMatS0=    1 NMatT0=    0 NMatD0=    1 NMtDS0=    0 NMtDT0=    0
         I1Cent=           4 NGrid=           0.
 Petite list used in FoFCou.
 Requested convergence on RMS density matrix=1.00D-08 within 128 cycles.
 Requested convergence on MAX density matrix=1.00D-06.
 Requested convergence on             energy=1.00D-06.
 No special actions if energy rises.
 Keep R1 and R2 ints in memory in canonical form, NReq=12028007.
 SCF Done:  E(UM062X) =  -116.213869495     A.U. after   13 cycles
             Convg  =    0.5724D-08             -V/T =  2.0033
 <Sx>= 0.0000 <Sy>= 0.0000 <Sz>= 0.5000 <S**2>= 0.7588 S= 0.5044
 <L.S>= 0.000000000000E+00
 Annihilation of the first spin contaminant:
 S**2 before annihilation     0.7588,   after     0.7500
 Calling FoFJK, ICntrl=      2127 FMM=F ISym2X=0 I1Cent= 0 IOpClX= 1 NMat=1 NMatS=1 NMatT=0.
 ***** Axes restored to original set *****
 -------------------------------------------------------------------
 Center     Atomic                   Forces (Hartrees/Bohr)
 Number     Number              X              Y              Z
 -------------------------------------------------------------------
      1        6          -0.000205056   -0.000172929    0.000029960
      2        1           0.000101487   -0.000024882   -0.000043184
      3        1           0.000078166   -0.000118977    0.000011845
      4        1           0.000016613   -0.000071057   -0.000020603
      5        1           0.000069637    0.000256796   -0.000023594
      6        8          -0.000089208    0.000217556   -0.000012317
      7        1           0.000028362   -0.000086507    0.000057892
 -------------------------------------------------------------------
 Cartesian Forces:  Max     0.000256796 RMS     0.000109157

 GradGradGradGradGradGradGradGradGradGradGradGradGradGradGradGradGradGrad
 Berny optimization.
 Internal  Forces:  Max     0.000362297 RMS     0.000123027
 Search for a saddle point.
[...]
     5   1     0.00  -0.06  -0.79    -0.38  -0.13   0.01     0.15  -0.76   0.07
     6   8     0.00   0.00   0.01    -0.02   0.00   0.00     0.01   0.02   0.00
     7   1     0.02   0.00  -0.04     0.07   0.00   0.00     0.22  -0.02   0.00
                    10                     11                     12
                     A                      A                      A
 Frequencies --  1461.2759              1476.7407              3083.5248
 Red. masses --     1.0448                 1.0255                 1.0243
 Frc consts  --     1.3144                 1.3177                 5.7379
 IR Inten    --     2.3903                 0.1581                 4.3741
  Atom  AN      X      Y      Z        X      Y      Z        X      Y      Z
     1   6     0.00   0.01  -0.06    -0.02  -0.04  -0.01     0.04  -0.01   0.00
     2   1     0.29   0.36   0.30    -0.21   0.27   0.42    -0.11   0.46  -0.38
     3   1     0.03  -0.28   0.65     0.34  -0.13  -0.15    -0.19  -0.48  -0.18
     4   1    -0.31  -0.22  -0.09    -0.05   0.59  -0.14    -0.14   0.11   0.55
     5   1    -0.01   0.05  -0.18     0.01  -0.40  -0.04     0.00   0.00   0.00
     6   8     0.00   0.00   0.00     0.00   0.01   0.00     0.00   0.00   0.00
     7   1    -0.01   0.00  -0.01     0.09  -0.01   0.00     0.00   0.00   0.00
                    13                     14                     15
                     A                      A                      A
 Frequencies --  3204.1812              3212.8031              3815.6720
 Red. masses --     1.1074                 1.1072                 1.0670
 Frc consts  --     6.6990                 6.7333                 9.1530
 IR Inten    --     5.7787                 4.1474                39.7451
  Atom  AN      X      Y      Z        X      Y      Z        X      Y      Z
     1   6    -0.01  -0.06   0.08     0.01   0.07   0.06     0.00   0.00   0.00
     2   1    -0.16   0.59  -0.48     0.03  -0.11   0.11     0.00   0.00   0.00
     3   1     0.10   0.22   0.10    -0.30  -0.69  -0.26     0.00   0.00   0.00
     4   1     0.15  -0.12  -0.53     0.16  -0.10  -0.55     0.00   0.00   0.00
     5   1     0.00  -0.01   0.01     0.00   0.01   0.01    -0.02   0.00   0.00
     6   8     0.00   0.00   0.00     0.00   0.00   0.00     0.01   0.06   0.00
     7   1     0.00   0.00   0.00     0.00   0.00   0.00    -0.12  -0.99   0.00

 -------------------
 - Thermochemistry -
 -------------------
 Temperature   298.150 Kelvin.  Pressure   1.00000 Atm.
 Atom     1 has atomic number  6 and mass  12.00000
 Atom     2 has atomic number  1 and mass   1.00783
 Atom     3 has atomic number  1 and mass   1.00783
 Atom     4 has atomic number  1 and mass   1.00783
 Atom     5 has atomic number  1 and mass   1.00783
 Atom     6 has atomic number  8 and mass  15.99491
 Atom     7 has atomic number  1 and mass   1.00783
 Molecular mass:    33.03404 amu.
 Principal axes and moments of inertia in atomic units:
                           1         2         3
     Eigenvalues --    14.94822 198.50613 201.66063
           X            0.99976   0.02180   0.00006
           Y           -0.02180   0.99976   0.00001
           Z           -0.00006  -0.00001   1.00000
 This molecule is an asymmetric top.
 Rotational symmetry number  1.
 Rotational temperatures (Kelvin)      5.79425     0.43633     0.42950
 Rotational constants (GHZ):         120.73283     9.09161     8.94940
    1 imaginary frequencies ignored.
 Zero-point vibrational energy     135420.7 (Joules/Mol)
                                   32.36633 (Kcal/Mol)
 Warning -- explicit consideration of   3 degrees of freedom as
           vibrations may cause significant error
 Vibrational temperatures:    201.31   449.97   457.41  1177.73  1312.27
          (Kelvin)           1757.51  1884.70  1947.67  2102.45  2124.70
                             4436.50  4610.10  4622.50  5489.89
 
 Zero-point correction=                           0.051579 (Hartree/Particle)
 Thermal correction to Energy=                    0.056046
 Thermal correction to Enthalpy=                  0.056991
 Thermal correction to Gibbs Free Energy=         0.026237
 Sum of electronic and zero-point Energies=           -116.162294
 Sum of electronic and thermal Energies=              -116.157827
 Sum of electronic and thermal Enthalpies=            -116.156882
 Sum of electronic and thermal Free Energies=         -116.187636
 
                     E (Thermal)             CV                S
                      KCal/Mol        Cal/Mol-Kelvin    Cal/Mol-Kelvin
 Total                   35.170             12.894             64.726
 Electronic               0.000              0.000              1.377
 Translational            0.889              2.981             36.416
 Rotational               0.889              2.981             21.020
 Vibrational             33.392              6.932              5.912
 Vibration     1          0.615              1.913              2.805
 Vibration     2          0.701              1.649              1.348
 Vibration     3          0.704              1.639              1.321
                       Q            Log10(Q)             Ln(Q)
 Total Bot       0.854500D-12        -12.068288        -27.788259
 Total V=0       0.453281D+12         11.656368         26.839778
 Vib (Bot)       0.653801D-23        -23.184554        -53.384409
 Vib (Bot)    1  0.145329D+01          0.162352          0.373830
 Vib (Bot)    2  0.603659D+00         -0.219208         -0.504746
 Vib (Bot)    3  0.592035D+00         -0.227652         -0.524189
 Vib (V=0)       0.346818D+01          0.540101          1.243629
 Vib (V=0)    1  0.203690D+01          0.308969          0.711428
 Vib (V=0)    2  0.128384D+01          0.108511          0.249855
 Vib (V=0)    3  0.127492D+01          0.105484          0.242886
 Electronic      0.200000D+01          0.301030          0.693147
 Translational   0.746273D+07          6.872898         15.825432
 Rotational      0.875666D+04          3.942339          9.077570
 ***** Axes restored to original set *****
 -------------------------------------------------------------------
 Center     Atomic                   Forces (Hartrees/Bohr)
 Number     Number              X              Y              Z
 -------------------------------------------------------------------
      1        6          -0.000001716   -0.000000410    0.000000887
      2        1          -0.000006165   -0.000000902    0.000002103
      3        1          -0.000000077    0.000002256    0.000002499
      4        1          -0.000001743   -0.000003559   -0.000003385
      5        1           0.000001924    0.000000890    0.000000016
      6        8           0.000005304    0.000001803   -0.000000664
      7        1           0.000002473   -0.000000079   -0.000001456
 -------------------------------------------------------------------
 Cartesian Forces:  Max     0.000006165 RMS     0.000002490

 GradGradGradGradGradGradGradGradGradGradGradGradGradGradGradGradGradGrad
 Berny optimization.
 Internal  Forces:  Max     0.000000335 RMS     0.000000119
 Search for a saddle point.
 Step number   1 out of a maximum of    2
 All quantities printed in internal units (Hartrees-Bohrs-Radians)
 Swaping is turned off.
 Second derivative matrix not updated -- analytic derivatives used.
 The second derivative matrix:
                          R1        R2        R3        R4        R5
           R1           0.35372
           R2           0.00081   0.35677
           R3           0.00067   0.00045   0.35513
           R4           0.00139   0.00163   0.00148   0.17525
           R5           0.00000  -0.00017  -0.00001   0.09726   0.00873
           R6          -0.00002  -0.00005  -0.00007   0.00333  -0.00634
           A1           0.00650   0.00722  -0.00367  -0.01372   0.00656
           A2           0.00624  -0.00354   0.00615  -0.01287   0.00586
           A3           0.00219  -0.00632  -0.00625   0.01499  -0.00594
           A4          -0.00365   0.00554   0.00615  -0.01261   0.00752
           A5          -0.00671   0.00318  -0.00665   0.01472  -0.00992
           A6          -0.00611  -0.00707   0.00290   0.01514  -0.00696
           A7           0.00078  -0.00118   0.00012  -0.00085   0.00475
           A8           0.00068  -0.00280   0.00153  -0.00197  -0.00512
           A9          -0.00129   0.00005   0.00119   0.00055   0.00117
           D1           0.00027  -0.00453   0.00484   0.00008   0.00114
           D2           0.00549  -0.00054  -0.00541   0.00015   0.00056
           D3          -0.00519   0.00531  -0.00021  -0.00025  -0.00167
                          R6        A1        A2        A3        A4
           R6           0.52249
           A1           0.00110   0.05925
           A2           0.00085  -0.00483   0.05459
           A3          -0.00056  -0.02896  -0.02583   0.08164
           A4           0.00106  -0.00433  -0.00448  -0.00250   0.05971
           A5          -0.00209  -0.02534  -0.00274  -0.00906  -0.02624
           A6          -0.00082  -0.00270  -0.02434  -0.00727  -0.02853
           A7           0.00381  -0.00019   0.00046  -0.00180  -0.00039
           A8           0.00053  -0.00194   0.00661  -0.00041  -0.00088
           A9          -0.00019  -0.00338  -0.00075   0.00007   0.00277
           D1           0.00006  -0.01982   0.01916   0.00078  -0.00012
           D2           0.00008   0.01900  -0.00034   0.00655  -0.01883
           D3          -0.00024   0.00030  -0.01931  -0.00520   0.01960
                          A5        A6        A7        A8        A9
           A5           0.08104
           A6          -0.00926   0.07967
           A7           0.00262  -0.00065   0.08031
           A8          -0.00321  -0.00093  -0.00464   0.01706
           A9           0.00105   0.00049   0.00113  -0.00087   0.00327
           D1          -0.00497   0.00442   0.00031   0.00116   0.00055
           D2           0.00027  -0.00684  -0.00011  -0.00049  -0.00249
           D3           0.00568  -0.00025  -0.00016  -0.00183   0.00095
                          D1        D2        D3
           D1           0.01629
           D2          -0.00780   0.01687
           D3          -0.00798  -0.00783   0.01682
     Eigenvalues ---   -0.04279   0.00068   0.00304   0.01644   0.06952
     Eigenvalues ---    0.07227   0.08071   0.10305   0.10644   0.11293
     Eigenvalues ---    0.22540   0.35426   0.35605   0.35801   0.52263
     Eigenvalues --- 1000.000001000.000001000.00000
 Eigenvectors required to have negative eigenvalues:
                          R5        R4        A5        A6        A4
   1                    0.88001  -0.42315   0.10086   0.08161  -0.07765
                          A1        A3        A2        A8        A7
   1                   -0.07418   0.07307  -0.07137   0.07066  -0.03512
 Angle between quadratic step and forces=  79.03 degrees.
 Linear search not attempted -- option 19 set.
 Iteration  1 RMS(Cart)=  0.00000243 RMS(Int)=  0.00000000
 Iteration  2 RMS(Cart)=  0.00000000 RMS(Int)=  0.00000000
 Variable       Old X    -DE/DX   Delta X   Delta X   Delta X     New X
                                 (Linear)    (Quad)   (Total)
    R1        2.05436   0.00000   0.00000   0.00000   0.00000   2.05436
    R2        2.05549   0.00000   0.00000   0.00000   0.00000   2.05549
    R3        2.05426   0.00000   0.00000   0.00000   0.00000   2.05426
    R4        2.25483   0.00000   0.00000   0.00000   0.00000   2.25483
    R5        2.53914   0.00000   0.00000   0.00000   0.00000   2.53914
    R6        1.83247   0.00000   0.00000   0.00000   0.00000   1.83247
    A1        1.95830   0.00000   0.00000   0.00000   0.00000   1.95830
    A2        1.96598   0.00000   0.00000   0.00000   0.00000   1.96598
    A3        1.88162   0.00000   0.00000   0.00000   0.00000   1.88162
    A4        1.96424   0.00000   0.00000   0.00000   0.00000   1.96424
    A5        1.82163   0.00000   0.00000   0.00000   0.00000   1.82163
    A6        1.86138   0.00000   0.00000   0.00000   0.00000   1.86138
    A7        1.72256   0.00000   0.00000   0.00000   0.00000   1.72256
    A8        3.29180   0.00000   0.00000   0.00000   0.00000   3.29180
    A9        3.00476   0.00000   0.00000   0.00000   0.00000   3.00477
    D1        0.68934   0.00000   0.00000  -0.00001  -0.00001   0.68933
    D2        2.77982   0.00000   0.00000  -0.00001  -0.00001   2.77982
    D3       -1.38526   0.00000   0.00000  -0.00001  -0.00001  -1.38527
         Item               Value     Threshold  Converged?
 Maximum Force            0.000000     0.000450     YES
 RMS     Force            0.000000     0.000300     YES
 Maximum Displacement     0.000006     0.001800     YES
 RMS     Displacement     0.000002     0.001200     YES
 Predicted change in Energy=-6.335884D-13
 Optimization completed.
    -- Stationary point found.
                           ----------------------------
                           !   Optimized Parameters   !
                           ! (Angstroms and Degrees)  !
 --------------------------                            --------------------------
 ! Name  Definition              Value          Derivative Info.                !
 --------------------------------------------------------------------------------
 ! R1    R(1,2)                  1.0871         -DE/DX =    0.0                 !
 ! R2    R(1,3)                  1.0877         -DE/DX =    0.0                 !
 ! R3    R(1,4)                  1.0871         -DE/DX =    0.0                 !
 ! R4    R(1,5)                  1.1932         -DE/DX =    0.0                 !
 ! R5    R(5,6)                  1.3437         -DE/DX =    0.0                 !
 ! R6    R(6,7)                  0.9697         -DE/DX =    0.0                 !
 ! A1    A(2,1,3)              112.2022         -DE/DX =    0.0                 !
 ! A2    A(2,1,4)              112.6423         -DE/DX =    0.0                 !
 ! A3    A(2,1,5)              107.8089         -DE/DX =    0.0                 !
 ! A4    A(3,1,4)              112.5424         -DE/DX =    0.0                 !
 ! A5    A(3,1,5)              104.3715         -DE/DX =    0.0                 !
 ! A6    A(4,1,5)              106.6494         -DE/DX =    0.0                 !
 ! A7    A(5,6,7)               98.6953         -DE/DX =    0.0                 !
 ! A8    L(1,5,6,3,-1)         188.6061         -DE/DX =    0.0                 !
 ! A9    L(1,5,6,3,-2)         172.1603         -DE/DX =    0.0                 !
 ! D1    D(2,1,6,7)             39.4963         -DE/DX =    0.0                 !
 ! D2    D(3,1,6,7)            159.2722         -DE/DX =    0.0                 !
 ! D3    D(4,1,6,7)            -79.3698         -DE/DX =    0.0                 !
 --------------------------------------------------------------------------------
 GradGradGradGradGradGradGradGradGradGradGradGradGradGradGradGradGradGrad

 1|1|UNPC-DESKTOP-319GPER|Freq|UM062X|6-311++G(d,p)|C1H5O1(2)|SAGAD|08-
 Oct-2020|0||#N Geom=AllCheck Guess=TCheck SCRF=Check GenChk UM062X/6-3
 11++G(d,p) Freq||calculation of fransition state methane-hydroxil radi
 cal with M062X with basis 6-311++g(d,p)||0,2|C,0.7346174712,1.75706993
 44,-0.8690046201|H,1.1205352503,2.1268180176,0.0776654158|H,1.15847783
 95,2.2853341902,-1.7201270245|H,-0.3517420152,1.7280913094,-0.89540701
 94|H,1.109941988,0.6322366745,-1.0017496316|O,1.4958018518,-0.65294359
 18,-0.9322355705|H,1.3250134592,-0.8065319042,0.0098713957||Version=IA
 32W-G09RevA.02|State=2-A|HF=-116.2138731|S2=0.758739|S2-1=0.|S2A=0.750
 036|RMSD=1.922e-009|RMSF=2.490e-006|ZeroPoint=0.051579|Thermal=0.05604
 64|Dipole=-0.2859882,0.4687249,0.6129366|DipoleDeriv=0.0455777,-0.2742
 181,0.0104205,-0.2627108,0.7968814,-0.010094,-0.0186591,0.0828877,-0.0
 324096,0.0445215,0.037145,-0.0477647,0.0207067,-0.0651636,-0.0378912,-
 0.0497387,-0.0280404,-0.0387949,0.0450554,0.0398666,0.0408623,0.008578
 ,-0.0755269,0.0603215,0.0547267,0.0052365,0.0021973,-0.0658499,0.00598
 95,-0.0035484,0.0471664,-0.061171,0.004601,0.0032094,-0.0096917,0.0787
 647,0.0325241,0.3980897,-0.0083967,0.3963068,-1.140004,0.0232011,-0.00
 63574,0.0212795,0.1340716,-0.4350573,-0.2206346,-0.0401937,-0.2022374,
 0.1656227,-0.0364967,-0.0641534,0.0348545,-0.2867131,0.3332284,0.01376
 2,0.0486207,-0.0078097,0.3793614,-0.0036418,0.0809725,-0.1065261,0.142
 884|Polar=21.4279844,-6.8336829,41.949993,-0.0209624,-0.9473437,20.430
 1827|PG=C01 [X(C1H5O1)]|NImag=1||0.54533122,0.07863455,0.32464170,0.00
 600907,-0.01713067,0.56964333,-0.08176541,-0.03965855,-0.08647426,0.08
 201827,-0.04230647,-0.06733376,-0.08792412,0.04090636,0.07231405,-0.08
 767936,-0.08341774,-0.26366737,0.09563507,0.09157836,0.27924558,-0.089
 48567,-0.05935489,0.08457903,0.00522822,0.00665794,-0.00921288,0.09054
 348,-0.06310371,-0.10197567,0.11586108,0.00559862,0.00710554,-0.010210
 08,0.06245562,0.11023659,0.08559542,0.11119422,-0.22343798,0.01091196,
 0.01428833,-0.01654732,-0.09422143,-0.12059412,0.23563319,-0.33377217,
 -0.01170165,-0.00731923,-0.00650720,0.00090466,0.00180993,-0.00760921,
 0.00145401,-0.00215276,0.35458709,-0.00581631,-0.03064910,0.00108981,-
 0.01135182,0.00050113,0.00092590,-0.01584676,0.00102724,-0.00171843,0.
 00968286,0.03484848,-0.00707096,0.00126944,-0.04962162,-0.02730108,0.0
 0111617,0.00233528,0.02435681,-0.00160716,0.00304990,0.00776020,-0.000
 52782,0.04515729,-0.03045342,0.00047564,-0.00064208,0.00025004,-0.0047
 0821,-0.00113925,0.00037959,-0.00464124,0.00111352,-0.00749167,0.02457
 929,0.00256278,0.03345375,-0.00291561,-0.02002843,-0.00043098,0.006858
 08,-0.01720435,0.00179342,0.00950082,-0.02275321,-0.00516022,-0.000375
 08,-0.01183526,-0.00075121,0.01222483,-0.00756846,0.00479945,-0.018346
 77,-0.03409829,0.00640723,-0.01802996,-0.00228100,-0.00508105,0.017617
 16,0.00096082,-0.00016259,0.00107521,-0.00056917,-0.00554169,0.0081491
 7,0.05083034,-0.00924293,0.03296797,0.00484127,0.00042763,-0.00088522,
 0.00064067,0.00137050,-0.00180357,-0.00136400,0.00114656,-0.00213044,0
 .00003113,0.00193486,-0.02833467,0.00305052,0.02455492,0.03613659,-0.1
 0365970,-0.01405623,-0.00184993,0.00445739,-0.00025207,-0.00384704,0.0
 0658478,0.00268128,0.00010456,0.00558943,0.00035114,-0.02580202,0.0804
 4093,-0.00395902,0.00522158,0.04013343,0.00085563,0.00090919,-0.000864
 24,0.00057778,-0.00024485,0.00077293,-0.00100314,0.00024206,0.00080837
 ,0.00007511,-0.00022422,-0.00025991,0.00010559,0.00534750,-0.01374736,
 -0.09449303,-0.07092427,0.50663447,-0.00061162,-0.00136307,-0.00099380
 ,0.00034844,-0.00056905,-0.00005419,-0.00042692,0.00004027,0.00011729,
 -0.00035340,0.00088318,-0.00033888,0.00192685,0.00304164,-0.00347187,-
 0.02019155,-0.00996373,0.09388207,0.01930820,-0.00062904,-0.00099505,0
 .00259112,-0.00050275,0.00016001,-0.00041779,0.00043431,-0.00022527,-0
 .00069106,-0.00006934,0.00051808,0.00014944,-0.00212829,-0.00105122,0.
 01349420,-0.00503564,-0.03354625,0.06489458,0.00793076,0.03513968,-0.0
 0250924,0.00552233,0.00204619,0.00024330,-0.00078393,0.00014190,0.0005
 8266,-0.00130895,-0.00046698,-0.00001067,-0.00062046,-0.00009177,0.003
 54113,-0.00894767,-0.00109533,0.08729343,0.08615917,-0.49334425,-0.089
 14062,-0.08002049,0.49281025||0.00000172,0.00000041,-0.00000089,0.0000
 0616,0.00000090,-0.00000210,0.00000008,-0.00000226,-0.00000250,0.00000
 174,0.00000356,0.00000339,-0.00000192,-0.00000089,-0.00000002,-0.00000
 530,-0.00000180,0.00000066,-0.00000247,0.00000008,0.00000146|||@


 CHARLIE BROWN -- WHICH DO YOU THINK LASTS LONGER IN LIFE, THE GOOD THINGS 
                  OR THE BAD THINGS?
 LINUS --         GOOD THINGS LAST EIGHT SECONDS ..
                  BAD THINGS LAST THREE WEEKS
 CHARLIE BROWN -- WHAT ABOUT IN BETWEEN?
 SNOOPY --        IN BETWEEN YOU SHOULD TAKE A NAP ...
 Job cpu time:  0 days  0 hours  1 minutes 36.0 seconds.
 File lengths (MBytes):  RWF=     12 Int=      0 D2E=      0 Chk=      1 Scr=      1
 Normal termination of Gaussian 09 at Thu Oct 08 23:41:19 2020.
