 Entering Link 1 = C:\G09W\l1.exe PID=     17256.
  
 Copyright (c) 1988,1990,1992,1993,1995,1998,2003,2009, Gaussian, Inc.
                  All Rights Reserved.
  
 This is part of the Gaussian(R) 09 program.  It is based on
 the Gaussian(R) 03 system (copyright 2003, Gaussian, Inc.),
 the Gaussian(R) 98 system (copyright 1998, Gaussian, Inc.),
 the Gaussian(R) 94 system (copyright 1995, Gaussian, Inc.),
 the Gaussian 92(TM) system (copyright 1992, Gaussian, Inc.),
 the Gaussian 90(TM) system (copyright 1990, Gaussian, Inc.),
 the Gaussian 88(TM) system (copyright 1988, Gaussian, Inc.),
 the Gaussian 86(TM) system (copyright 1986, Carnegie Mellon
 University), and the Gaussian 82(TM) system (copyright 1983,
 Carnegie Mellon University). Gaussian is a federally registered
 trademark of Gaussian, Inc.
  
 This software contains proprietary and confidential information,
 including trade secrets, belonging to Gaussian, Inc.
  
 This software is provided under written license and may be
 used, copied, transmitted, or stored only in accord with that
 written license.
  
 The following legend is applicable only to US Government
 contracts under FAR:
  
                    RESTRICTED RIGHTS LEGEND
  
 Use, reproduction and disclosure by the US Government is
 subject to restrictions as set forth in subparagraphs (a)
 and (c) of the Commercial Computer Software - Restricted
 Rights clause in FAR 52.227-19.
  
 Gaussian, Inc.
 340 Quinnipiac St., Bldg. 40, Wallingford CT 06492
  
  
 ---------------------------------------------------------------
 Warning -- This program may not be used in any manner that
 competes with the business of Gaussian, Inc. or will provide
 assistance to any competitor of Gaussian, Inc.  The licensee
 of this program is prohibited from giving any competitor of
 Gaussian, Inc. access to this program.  By using this program,
 the user acknowledges that Gaussian, Inc. is engaged in the
 business of creating and licensing software in the field of
 computational chemistry and represents and warrants to the
 licensee that it is not a competitor of Gaussian, Inc. and that
 it will not use this program in any manner prohibited above.
 ---------------------------------------------------------------
  

 Cite this work as:
 Gaussian 09, Revision A.02,
 M. J. Frisch, G. W. Trucks, H. B. Schlegel, G. E. Scuseria, 
 M. A. Robb, J. R. Cheeseman, G. Scalmani, V. Barone, B. Mennucci, 
 G. A. Petersson, H. Nakatsuji, M. Caricato, X. Li, H. P. Hratchian, 
 A. F. Izmaylov, J. Bloino, G. Zheng, J. L. Sonnenberg, M. Hada, 
 M. Ehara, K. Toyota, R. Fukuda, J. Hasegawa, M. Ishida, T. Nakajima, 
 Y. Honda, O. Kitao, H. Nakai, T. Vreven, J. A. Montgomery, Jr., 
 J. E. Peralta, F. Ogliaro, M. Bearpark, J. J. Heyd, E. Brothers, 
 K. N. Kudin, V. N. Staroverov, R. Kobayashi, J. Normand, 
 K. Raghavachari, A. Rendell, J. C. Burant, S. S. Iyengar, J. Tomasi, 
 M. Cossi, N. Rega, J. M. Millam, M. Klene, J. E. Knox, J. B. Cross, 
 V. Bakken, C. Adamo, J. Jaramillo, R. Gomperts, R. E. Stratmann, 
 O. Yazyev, A. J. Austin, R. Cammi, C. Pomelli, J. W. Ochterski, 
 R. L. Martin, K. Morokuma, V. G. Zakrzewski, G. A. Voth, 
 P. Salvador, J. J. Dannenberg, S. Dapprich, A. D. Daniels, 
 O. Farkas, J. B. Foresman, J. V. Ortiz, J. Cioslowski, 
 and D. J. Fox, Gaussian, Inc., Wallingford CT, 2009.
 
 ******************************************
 Gaussian 09:  IA32W-G09RevA.02 11-Jun-2009
                05-Oct-2020 
 ******************************************
 %chk=C:\Users\sagad\Documents\rayGit\FQ\quimicaComputacional\class4Metilo\estado
 DeTransicion\metiloTsB3LYP.chk
 %nprocshared=4
 Will use up to    4 processors via shared memory.
 %mem=1500MB
 --------------------------------------------------------
 # opt=(calcfc,ts,noeigen) freq=noraman b3lyp/6-31+g(d,p)
 --------------------------------------------------------
 1/5=1,10=4,11=1,14=-1,18=20,26=3,38=1/1,3;
 2/9=110,12=2,17=6,18=5,40=1/2;
 3/5=1,6=6,7=111,11=2,16=1,25=1,30=1,71=2,74=-5/1,2,3;
 4//1;
 5/5=2,38=5/2;
 8/6=4,10=90,11=11/1;
 11/6=1,8=1,9=11,15=111,16=1/1,2,10;
 10/6=1,7=6,13=1/2;
 6/7=2,8=2,9=2,10=2,28=1/1;
 7/10=1,18=20,25=1/1,2,3,16;
 1/5=1,10=4,11=1,14=-1,18=20/3(2);
 2/9=110/2;
 99//99;
 2/9=110/2;
 3/5=1,6=6,7=111,11=2,16=1,25=1,30=1,71=1,74=-5/1,2,3;
 4/5=5,16=3/1;
 5/5=2,38=5/2;
 7//1,2,3,16;
 1/5=1,11=1,14=-1,18=20/3(-5);
 2/9=110/2;
 6/7=2,8=2,9=2,10=2,19=2,28=1/1;
 99/9=1/99;
 --------------------------
 Estado de transicion B3LYp
 --------------------------
 Symbolic Z-matrix:
 Charge =  0 Multiplicity = 2
 C                     0.74301   1.76559  -0.87365 
 H                     1.09968   2.26999   0. 
 H                     1.09968   2.26999  -1.7473 
 H                    -0.32699   1.76561  -0.87365 
 H                     1.14299   0.63422  -0.87365 
 O                     1.57631  -0.59144  -0.87365 
 H                     1.25797  -1.04388  -0.08908 
 

 GradGradGradGradGradGradGradGradGradGradGradGradGradGradGradGradGradGrad
 Berny optimization.
 Initialization pass.
                           ----------------------------
                           !    Initial Parameters    !
                           ! (Angstroms and Degrees)  !
 --------------------------                            --------------------------
 ! Name  Definition              Value          Derivative Info.                !
 --------------------------------------------------------------------------------
 ! R1    R(1,2)                  1.07           calculate D2E/DX2 analytically  !
 ! R2    R(1,3)                  1.07           calculate D2E/DX2 analytically  !
 ! R3    R(1,4)                  1.07           calculate D2E/DX2 analytically  !
 ! R4    R(1,5)                  1.2            calculate D2E/DX2 analytically  !
 ! R5    R(5,6)                  1.3            calculate D2E/DX2 analytically  !
 ! R6    R(6,7)                  0.96           calculate D2E/DX2 analytically  !
 ! A1    A(2,1,3)              109.4713         calculate D2E/DX2 analytically  !
 ! A2    A(2,1,4)              109.4712         calculate D2E/DX2 analytically  !
 ! A3    A(2,1,5)              109.4712         calculate D2E/DX2 analytically  !
 ! A4    A(3,1,4)              109.4712         calculate D2E/DX2 analytically  !
 ! A5    A(3,1,5)              109.4712         calculate D2E/DX2 analytically  !
 ! A6    A(4,1,5)              109.4712         calculate D2E/DX2 analytically  !
 ! A7    A(5,6,7)              109.5            calculate D2E/DX2 analytically  !
 ! A8    L(1,5,6,3,-1)         180.0            calculate D2E/DX2 analytically  !
 ! A9    L(1,5,6,3,-2)         180.0            calculate D2E/DX2 analytically  !
 ! D1    D(2,1,6,7)             59.8889         calculate D2E/DX2 analytically  !
 ! D2    D(3,1,6,7)            179.8889         calculate D2E/DX2 analytically  !
 ! D3    D(4,1,6,7)            -60.1111         calculate D2E/DX2 analytically  !
 --------------------------------------------------------------------------------
 Trust Radius=3.00D-01 FncErr=1.00D-07 GrdErr=1.00D-06
 Number of steps in this run=  28 maximum allowed number of steps= 100.
 Search for a saddle point of order  1.
 GradGradGradGradGradGradGradGradGradGradGradGradGradGradGradGradGradGrad

                          Input orientation:                          
 ---------------------------------------------------------------------
 Center     Atomic      Atomic             Coordinates (Angstroms)
 Number     Number       Type             X           Y           Z
 ---------------------------------------------------------------------
      1          6           0        0.743007    1.765592   -0.873652
      2          1           0        1.099680    2.269990    0.000000
      3          1           0        1.099680    2.269990   -1.747303
      4          1           0       -0.326993    1.765605   -0.873652
      5          1           0        1.142993    0.634217   -0.873652
      6          8           0        1.576312   -0.591441   -0.873652
      7          1           0        1.257967   -1.043880   -0.089078
 ---------------------------------------------------------------------
                    Distance matrix (angstroms):
                    1          2          3          4          5
     1  C    0.000000
     2  H    1.070000   0.000000
     3  H    1.070000   1.747303   0.000000
     4  H    1.070000   1.747303   1.747303   0.000000
     5  H    1.200000   1.854966   1.854966   1.854966   0.000000
     6  O    2.500000   3.029560   3.029560   3.029560   1.300000
     7  H    2.962072   3.318844   3.708976   3.319768   1.856012
                    6          7
     6  O    0.000000
     7  H    0.960000   0.000000
 Stoichiometry    CH5O(2)
 Framework group  C1[X(CH5O)]
 Deg. of freedom    15
 Full point group                 C1      NOp   1
 Largest Abelian subgroup         C1      NOp   1
 Largest concise Abelian subgroup C1      NOp   1
                         Standard orientation:                         
 ---------------------------------------------------------------------
 Center     Atomic      Atomic             Coordinates (Angstroms)
 Number     Number       Type             X           Y           Z
 ---------------------------------------------------------------------
      1          6           0        1.208803   -0.011461    0.000000
      2          1           0        1.540310   -0.534383   -0.872671
      3          1           0        1.614344    0.978707   -0.001956
      4          1           0        1.540476   -0.530998    0.874628
      5          1           0        0.010237    0.047184    0.000000
      6          8           0       -1.288210    0.110717    0.000000
      7          1           0       -1.652507   -0.777477    0.000000
 ---------------------------------------------------------------------
 Rotational constants (GHZ):    131.6128919      9.1016047      8.9782435
 Standard basis: 6-31+G(d,p) (6D, 7F)
 There are    63 symmetry adapted basis functions of A   symmetry.
 Integral buffers will be    262144 words long.
 Raffenetti 2 integral format.
 Two-electron integral symmetry is turned on.
    63 basis functions,    99 primitive gaussians,    63 cartesian basis functions
    10 alpha electrons        9 beta electrons
       nuclear repulsion energy        37.1494648913 Hartrees.
 NAtoms=    7 NActive=    7 NUniq=    7 SFac= 7.50D-01 NAtFMM=   80 NAOKFM=F Big=F
 One-electron integrals computed using PRISM.
 NBasis=    63 RedAO= T  NBF=    63
 NBsUse=    63 1.00D-06 NBFU=    63
 Harris functional with IExCor=  402 diagonalized for initial guess.
 ExpMin= 4.38D-02 ExpMax= 5.48D+03 ExpMxC= 8.25D+02 IAcc=2 IRadAn=         0 AccDes= 0.00D+00
 HarFok:  IExCor=  402 AccDes= 0.00D+00 IRadAn=         0 IDoV= 1
 ScaDFX=  1.000000  1.000000  1.000000  1.000000
 FoFCou: FMM=F IPFlag=           0 FMFlag=      100000 FMFlg1=           0
         NFxFlg=           0 DoJE=T BraDBF=F KetDBF=T FulRan=T
         Omega=  0.000000  0.000000  1.000000  0.000000  0.000000 ICntrl=     500 IOpCl=  0
         NMat0=    1 NMatS0=    1 NMatT0=    0 NMatD0=    1 NMtDS0=    0 NMtDT0=    0
         I1Cent=           4 NGrid=           0.
 Petite list used in FoFCou.
 Initial guess orbital symmetries:
 Alpha Orbitals:
       Occupied  (A) (A) (A) (A) (A) (A) (A) (A) (A) (A)
       Virtual   (A) (A) (A) (A) (A) (A) (A) (A) (A) (A) (A) (A)
                 (A) (A) (A) (A) (A) (A) (A) (A) (A) (A) (A) (A)
                 (A) (A) (A) (A) (A) (A) (A) (A) (A) (A) (A) (A)
                 (A) (A) (A) (A) (A) (A) (A) (A) (A) (A) (A) (A)
                 (A) (A) (A) (A) (A)
 Beta  Orbitals:
       Occupied  (A) (A) (A) (A) (A) (A) (A) (A) (A)
       Virtual   (A) (A) (A) (A) (A) (A) (A) (A) (A) (A) (A) (A)
                 (A) (A) (A) (A) (A) (A) (A) (A) (A) (A) (A) (A)
                 (A) (A) (A) (A) (A) (A) (A) (A) (A) (A) (A) (A)
                 (A) (A) (A) (A) (A) (A) (A) (A) (A) (A) (A) (A)
                 (A) (A) (A) (A) (A) (A)
 The electronic state of the initial guess is 2-A.
 Initial guess <Sx>= 0.0000 <Sy>= 0.0000 <Sz>= 0.5000 <S**2>= 0.7500 S= 0.5000
 Requested convergence on RMS density matrix=1.00D-08 within 128 cycles.
 Requested convergence on MAX density matrix=1.00D-06.
 Requested convergence on             energy=1.00D-06.
 No special actions if energy rises.
 Keep R1 and R2 ints in memory in canonical form, NReq=5032494.
 SCF Done:  E(UB3LYP) =  -116.257434890     A.U. after   12 cycles
             Convg  =    0.5020D-08             -V/T =  2.0084
 <Sx>= 0.0000 <Sy>= 0.0000 <Sz>= 0.5000 <S**2>= 0.7562 S= 0.5031
 <L.S>= 0.000000000000E+00
 Annihilation of the first spin contaminant:
 S**2 before annihilation     0.7562,   after     0.7500
 Range of M.O.s used for correlation:     1    63
 NBasis=    63 NAE=    10 NBE=     9 NFC=     0 NFV=     0
 NROrb=     63 NOA=    10 NOB=     9 NVA=    53 NVB=    54
 Symmetrizing basis deriv contribution to polar:
 IMax=3 JMax=2 DiffMx= 0.00D+00
 G2DrvN: will do     8 centers at a time, making    1 passes doing MaxLOS=2.
 Calling FoFCou, ICntrl=  3107 FMM=F I1Cent=   0 AccDes= 0.00D+00.
 FoFDir/FoFCou used for L=0 through L=2.
 End of G2Drv Frequency-dependent properties file   721 does not exist.
 End of G2Drv Frequency-dependent properties file   722 does not exist.
          IDoAtm=1111111
          Differentiating once with respect to nuclear coordinates.
          Keep R1 and R2 ints in memory in canonical form, NReq=4887787.
          There are    24 degrees of freedom in the 1st order CPHF.  IDoFFX=5.
     18 vectors produced by pass  0 Test12= 4.23D-11 4.17D-07 XBig12= 4.15D-01 4.95D-01.
 AX will form    18 AO Fock derivatives at one time.
     18 vectors produced by pass  1 Test12= 4.23D-11 4.17D-07 XBig12= 1.65D-02 4.81D-02.
     18 vectors produced by pass  2 Test12= 4.23D-11 4.17D-07 XBig12= 5.46D-04 5.11D-03.
     18 vectors produced by pass  3 Test12= 4.23D-11 4.17D-07 XBig12= 4.82D-06 3.87D-04.
     15 vectors produced by pass  4 Test12= 4.23D-11 4.17D-07 XBig12= 4.20D-08 3.93D-05.
      1 vectors produced by pass  5 Test12= 4.23D-11 4.17D-07 XBig12= 8.19D-11 1.86D-06.
 Inverted reduced A of dimension    88 with in-core refinement.
 End of Minotr Frequency-dependent properties file   721 does not exist.
 End of Minotr Frequency-dependent properties file   722 does not exist.

 **********************************************************************

            Population analysis using the SCF density.

 **********************************************************************

 Orbital symmetries:
 Alpha Orbitals:
       Occupied  (A) (A) (A) (A) (A) (A) (A) (A) (A) (A)
       Virtual   (A) (A) (A) (A) (A) (A) (A) (A) (A) (A) (A) (A)
                 (A) (A) (A) (A) (A) (A) (A) (A) (A) (A) (A) (A)
                 (A) (A) (A) (A) (A) (A) (A) (A) (A) (A) (A) (A)
                 (A) (A) (A) (A) (A) (A) (A) (A) (A) (A) (A) (A)
                 (A) (A) (A) (A) (A)
 Beta  Orbitals:
       Occupied  (A) (A) (A) (A) (A) (A) (A) (A) (A)
       Virtual   (A) (A) (A) (A) (A) (A) (A) (A) (A) (A) (A) (A)
                 (A) (A) (A) (A) (A) (A) (A) (A) (A) (A) (A) (A)
                 (A) (A) (A) (A) (A) (A) (A) (A) (A) (A) (A) (A)
                 (A) (A) (A) (A) (A) (A) (A) (A) (A) (A) (A) (A)
                 (A) (A) (A) (A) (A) (A)
 The electronic state is 2-A.
 Alpha  occ. eigenvalues --  -19.19115 -10.19692  -1.00745  -0.72646  -0.51966
 Alpha  occ. eigenvalues --   -0.42983  -0.42100  -0.41580  -0.32428  -0.30482
 Alpha virt. eigenvalues --    0.00953   0.04124   0.05961   0.06007   0.10724
 Alpha virt. eigenvalues --    0.15467   0.16083   0.19005   0.20505   0.22402
 Alpha virt. eigenvalues --    0.25835   0.28946   0.34428   0.61369   0.61442
 Alpha virt. eigenvalues --    0.63922   0.90500   0.91078   0.95092   0.98754
 Alpha virt. eigenvalues --    1.05974   1.12546   1.12793   1.14773   1.28772
 Alpha virt. eigenvalues --    1.33001   1.34850   1.50940   1.55476   1.62352
 Alpha virt. eigenvalues --    1.68925   1.77318   2.03334   2.06764   2.09294
 Alpha virt. eigenvalues --    2.10232   2.14999   2.37867   2.44781   2.49875
 Alpha virt. eigenvalues --    2.63135   2.65085   2.67132   2.76741   2.90738
 Alpha virt. eigenvalues --    2.96220   3.24591   3.37250   3.44198   3.44398
 Alpha virt. eigenvalues --    3.69921   4.07993   4.51226
  Beta  occ. eigenvalues --  -19.17343 -10.19008  -0.96104  -0.70669  -0.48681
  Beta  occ. eigenvalues --   -0.41578  -0.41567  -0.37814  -0.30597
  Beta virt. eigenvalues --   -0.15579   0.01183   0.04569   0.06072   0.06135
  Beta virt. eigenvalues --    0.11134   0.16122   0.16506   0.19544   0.20782
  Beta virt. eigenvalues --    0.22793   0.26351   0.29249   0.36622   0.61717
  Beta virt. eigenvalues --    0.61799   0.66766   0.91152   0.91624   0.95754
  Beta virt. eigenvalues --    0.99433   1.06894   1.13495   1.13542   1.19013
  Beta virt. eigenvalues --    1.29585   1.34483   1.36338   1.52925   1.55945
  Beta virt. eigenvalues --    1.64976   1.71726   1.80283   2.03306   2.06948
  Beta virt. eigenvalues --    2.09763   2.10938   2.16141   2.38841   2.46551
  Beta virt. eigenvalues --    2.51030   2.63313   2.65220   2.68381   2.77593
  Beta virt. eigenvalues --    2.91500   2.97173   3.25193   3.38120   3.44802
  Beta virt. eigenvalues --    3.45049   3.71852   4.10194   4.52677
          Condensed to atoms (all electrons):
              1          2          3          4          5          6
     1  C    5.202416   0.384754   0.388272   0.384761   0.311763  -0.088133
     2  H    0.384754   0.521572  -0.026577  -0.028629  -0.018411   0.000593
     3  H    0.388272  -0.026577   0.501507  -0.026580  -0.014131   0.001422
     4  H    0.384761  -0.028629  -0.026580   0.521535  -0.018405   0.000588
     5  H    0.311763  -0.018411  -0.014131  -0.018405   0.439885   0.014414
     6  O   -0.088133   0.000593   0.001422   0.000588   0.014414   8.381787
     7  H    0.010633  -0.000383   0.000134  -0.000381  -0.004570   0.235879
              7
     1  C    0.010633
     2  H   -0.000383
     3  H    0.000134
     4  H   -0.000381
     5  H   -0.004570
     6  O    0.235879
     7  H    0.417272
 Mulliken atomic charges:
              1
     1  C   -0.594466
     2  H    0.167081
     3  H    0.175953
     4  H    0.167110
     5  H    0.289456
     6  O   -0.546550
     7  H    0.341417
 Sum of Mulliken atomic charges =   0.00000
 Mulliken charges with hydrogens summed into heavy atoms:
              1
     1  C    0.205133
     6  O   -0.205133
 Sum of Mulliken charges with hydrogens summed into heavy atoms =   0.00000
          Atomic-Atomic Spin Densities.
              1          2          3          4          5          6
     1  C    0.478644  -0.007807  -0.009576  -0.007811   0.082253  -0.106779
     2  H   -0.007807  -0.009507   0.002028   0.001446   0.000921   0.003699
     3  H   -0.009576   0.002028  -0.002797   0.002029  -0.001567   0.004371
     4  H   -0.007811   0.001446   0.002029  -0.009494   0.000916   0.003701
     5  H    0.082253   0.000921  -0.001567   0.000916  -0.053513  -0.069794
     6  O   -0.106779   0.003699   0.004371   0.003701  -0.069794   0.809229
     7  H    0.003455  -0.000056  -0.000058  -0.000056   0.002435  -0.002287
              7
     1  C    0.003455
     2  H   -0.000056
     3  H   -0.000058
     4  H   -0.000056
     5  H    0.002435
     6  O   -0.002287
     7  H   -0.015485
 Mulliken atomic spin densities:
              1
     1  C    0.432378
     2  H   -0.009276
     3  H   -0.005571
     4  H   -0.009268
     5  H   -0.038350
     6  O    0.642140
     7  H   -0.012053
 Sum of Mulliken atomic spin densities =   1.00000
 APT atomic charges:
              1
     1  C   -1.264511
     2  H    0.394498
     3  H    0.422385
     4  H    0.394562
     5  H    0.257425
     6  O   -0.771160
     7  H    0.566801
 Sum of APT charges=   0.00000
 APT Atomic charges with hydrogens summed into heavy atoms:
              1
     1  C    0.204359
     2  H    0.000000
     3  H    0.000000
     4  H    0.000000
     5  H    0.000000
     6  O   -0.204359
     7  H    0.000000
 Sum of APT charges=   0.00000
 Electronic spatial extent (au):  <R**2>=            159.3627
 Charge=              0.0000 electrons
 Dipole moment (field-independent basis, Debye):
    X=              1.0782    Y=             -1.6225    Z=              0.0000  Tot=              1.9481
 Quadrupole moment (field-independent basis, Debye-Ang):
   XX=            -13.3116   YY=            -13.3716   ZZ=            -15.3108
   XY=              3.0123   XZ=              0.0000   YZ=             -0.0001
 Traceless Quadrupole moment (field-independent basis, Debye-Ang):
   XX=              0.6864   YY=              0.6264   ZZ=             -1.3128
   XY=              3.0123   XZ=              0.0000   YZ=             -0.0001
 Octapole moment (field-independent basis, Debye-Ang**2):
  XXX=             -6.8635  YYY=             -0.9411  ZZZ=              0.0035  XYY=             -2.5565
  XXY=             -4.7195  XXZ=             -0.0001  XZZ=              0.1986  YZZ=             -0.9239
  YYZ=             -0.0035  XYZ=             -0.0004
 Hexadecapole moment (field-independent basis, Debye-Ang**3):
 XXXX=           -153.0805 YYYY=            -22.1583 ZZZZ=            -22.7214 XXXY=              9.8822
 XXXZ=             -0.0003 YYYX=              4.2578 YYYZ=              0.0002 ZZZX=              0.0061
 ZZZY=             -0.0002 XXYY=            -26.4865 XXZZ=            -31.1715 YYZZ=             -7.5923
 XXYZ=             -0.0011 YYXZ=             -0.0061 ZZXY=             -0.3553
 N-N= 3.714946489134D+01 E-N=-5.138304570253D+02  KE= 1.716577226309D+02
  Exact polarizability:   0.000   0.000   0.000   0.000   0.000   0.000
 Approx polarizability:  49.540   0.010  23.499   0.000   0.000  21.762
                          Isotropic Fermi Contact Couplings
        Atom                 a.u.       MegaHertz       Gauss      10(-4) cm-1
     1  C(13)              0.13056     146.77764      52.37391      48.95975
     2  H(1)              -0.00202      -9.03052      -3.22231      -3.01226
     3  H(1)              -0.00017      -0.75450      -0.26922      -0.25167
     4  H(1)              -0.00202      -9.01385      -3.21637      -3.00670
     5  H(1)              -0.01097     -49.01394     -17.48939     -16.34929
     6  O(17)              0.11489     -69.64779     -24.85206     -23.23200
     7  H(1)              -0.00870     -38.88785     -13.87615     -12.97159
 --------------------------------------------------------
       Center         ----  Spin Dipole Couplings  ----
                      3XX-RR        3YY-RR        3ZZ-RR
 --------------------------------------------------------
     1   Atom        0.485784     -0.242935     -0.242849
     2   Atom        0.003762     -0.016039      0.012277
     3   Atom        0.004741      0.027559     -0.032299
     4   Atom        0.003764     -0.016244      0.012481
     5   Atom        0.245672     -0.122459     -0.123213
     6   Atom        2.157208     -0.900064     -1.257143
     7   Atom       -0.004998      0.099799     -0.094801
 --------------------------------------------------------
                        XY            XZ            YZ
 --------------------------------------------------------
     1   Atom       -0.023351      0.000000      0.000003
     2   Atom       -0.008926     -0.012838      0.026778
     3   Atom        0.015903     -0.000034     -0.000118
     4   Atom       -0.008879      0.012871     -0.026668
     5   Atom       -0.002556      0.000000      0.000001
     6   Atom       -1.117747      0.000000      0.000000
     7   Atom        0.053016      0.000000      0.000000
 --------------------------------------------------------


 ---------------------------------------------------------------------------------
              Anisotropic Spin Dipole Couplings in Principal Axis System
 ---------------------------------------------------------------------------------

       Atom             a.u.   MegaHertz   Gauss  10(-4) cm-1        Axes

              Baa    -0.2437   -32.700   -11.668   -10.908  0.0320  0.9995 -0.0033
     1 C(13)  Bbb    -0.2428   -32.588   -11.628   -10.870  0.0001  0.0033  1.0000
              Bcc     0.4865    65.288    23.296    21.778  0.9995 -0.0320  0.0000
 
              Baa    -0.0322   -17.182    -6.131    -5.731  0.0319  0.8603 -0.5087
     2 H(1)   Bbb    -0.0038    -2.010    -0.717    -0.670  0.8993  0.1974  0.3902
              Bcc     0.0360    19.192     6.848     6.402 -0.4361  0.4700  0.7674
 
              Baa    -0.0323   -17.233    -6.149    -5.748  0.0001  0.0020  1.0000
     3 H(1)   Bbb    -0.0034    -1.826    -0.652    -0.609  0.8896 -0.4567  0.0008
              Bcc     0.0357    19.059     6.801     6.358  0.4567  0.8896 -0.0018
 
              Baa    -0.0322   -17.182    -6.131    -5.731  0.0320  0.8623  0.5054
     4 H(1)   Bbb    -0.0038    -2.010    -0.717    -0.670  0.8993  0.1958 -0.3910
              Bcc     0.0360    19.192     6.848     6.402  0.4362 -0.4670  0.7692
 
              Baa    -0.1232   -65.741   -23.458   -21.929  0.0000 -0.0011  1.0000
     5 H(1)   Bbb    -0.1225   -65.348   -23.318   -21.798  0.0069  1.0000  0.0011
              Bcc     0.2457   131.089    46.776    43.726  1.0000 -0.0069  0.0000
 
              Baa    -1.2651    91.544    32.665    30.536  0.3105  0.9506  0.0001
     6 O(17)  Bbb    -1.2571    90.966    32.459    30.343  0.0000 -0.0001  1.0000
              Bcc     2.5223  -182.510   -65.124   -60.879  0.9506 -0.3105  0.0000
 
              Baa    -0.0948   -50.581   -18.049   -16.872  0.0000  0.0000  1.0000
     7 H(1)   Bbb    -0.0271   -14.481    -5.167    -4.830  0.9228 -0.3854  0.0000
              Bcc     0.1219    65.062    23.216    21.702  0.3854  0.9228  0.0000
 

 ---------------------------------------------------------------------------------

 Calling FoFJK, ICntrl=    100147 FMM=F ISym2X=0 I1Cent= 0 IOpClX= 1 NMat=1 NMatS=1 NMatT=0.
 ***** Axes restored to original set *****
 -------------------------------------------------------------------
 Center     Atomic                   Forces (Hartrees/Bohr)
 Number     Number              X              Y              Z
 -------------------------------------------------------------------
      1        6          -0.005588455    0.008283984    0.004356319
      2        1           0.008338736    0.002414112    0.014709452
      3        1           0.009439254   -0.000187264   -0.015303432
      4        1          -0.015926368   -0.006172075   -0.000149150
      5        1          -0.000001528    0.000561759   -0.000323578
      6        8           0.012106788   -0.003615433   -0.017761681
      7        1          -0.008368426   -0.001285083    0.014472072
 -------------------------------------------------------------------
 Cartesian Forces:  Max     0.017761681 RMS     0.009212633

 GradGradGradGradGradGradGradGradGradGradGradGradGradGradGradGradGradGrad
 Berny optimization.
 Internal  Forces:  Max     0.015927575 RMS     0.009290271
 Search for a saddle point.
 Step number   1 out of a maximum of   28
 All quantities printed in internal units (Hartrees-Bohrs-Radians)
 Swaping is turned off.
 Second derivative matrix not updated -- analytic derivatives used.
 The second derivative matrix:
                          R1        R2        R3        R4        R5
           R1           0.39494
           R2           0.00110   0.39586
           R3           0.00117   0.00110   0.39495
           R4           0.00125   0.00063   0.00125   0.17291
           R5           0.00002  -0.00010   0.00002   0.09905   0.03305
           R6           0.00007  -0.00017   0.00007   0.00505  -0.00785
           A1           0.00761   0.00740  -0.00346  -0.01088   0.00513
           A2           0.00762  -0.00348   0.00762  -0.01132   0.00506
           A3           0.00074  -0.00620  -0.00620   0.01247  -0.00427
           A4          -0.00347   0.00740   0.00761  -0.01088   0.00513
           A5          -0.00631   0.00108  -0.00631   0.00814  -0.00679
           A6          -0.00620  -0.00620   0.00074   0.01247  -0.00427
           A7           0.00007  -0.00145   0.00006   0.00144  -0.00533
           A8           0.00186  -0.00390   0.00186   0.00088   0.00072
           A9          -0.00208   0.00000   0.00208   0.00000   0.00000
           D1          -0.00003  -0.00530   0.00543   0.00056   0.00037
           D2           0.00586   0.00000  -0.00586   0.00000   0.00000
           D3          -0.00543   0.00531   0.00003  -0.00056  -0.00037
                          R6        A1        A2        A3        A4
           R6           0.55972
           A1           0.00101   0.06026
           A2           0.00096  -0.00457   0.06131
           A3          -0.00056  -0.02568  -0.02571   0.06941
           A4           0.00101  -0.00399  -0.00457  -0.00140   0.06026
           A5          -0.00187  -0.02462  -0.00076  -0.00846  -0.02463
           A6          -0.00056  -0.00140  -0.02571  -0.00815  -0.02568
           A7           0.00257  -0.00006   0.00096  -0.00166  -0.00007
           A8           0.00184  -0.00235   0.00979  -0.00002  -0.00235
           A9           0.00000  -0.00450   0.00000  -0.00049   0.00450
           D1          -0.00005  -0.02145   0.02024   0.00109   0.00002
           D2           0.00000   0.02050   0.00000   0.00688  -0.02050
           D3           0.00005  -0.00002  -0.02024  -0.00494   0.02145
                          A5        A6        A7        A8        A9
           A5           0.06691
           A6          -0.00845   0.06939
           A7           0.00249  -0.00166   0.07205
           A8          -0.00504  -0.00003  -0.00413   0.02346
           A9           0.00000   0.00049   0.00000  -0.00001   0.00460
           D1          -0.00483   0.00493   0.00023   0.00224   0.00099
           D2           0.00000  -0.00688   0.00000   0.00000  -0.00413
           D3           0.00484  -0.00109  -0.00023  -0.00224   0.00099
                          D1        D2        D3
           D1           0.01858
           D2          -0.00948   0.01922
           D3          -0.00918  -0.00948   0.01858
     Eigenvalues ---   -0.02321  -0.00040   0.00423   0.02155   0.06797
     Eigenvalues ---    0.07016   0.07417   0.10014   0.10045   0.10495
     Eigenvalues ---    0.22711   0.39464   0.39531   0.39846   0.55991
     Eigenvalues --- 1000.000001000.000001000.00000
 Eigenvectors required to have negative eigenvalues:
                          R5        R4        A5        A2        A4
   1                    0.86426  -0.46305   0.07902  -0.07736  -0.07537
                          A1        A3        A6        A7        A8
   1                   -0.07537   0.07454   0.07454   0.05695   0.01749
 RFO step:  Lambda0=3.241770064D-05 Lambda=-7.49755313D-03.
 Linear search not attempted -- option 19 set.
 Maximum step size (   0.300) exceeded in Quadratic search.
    -- Step size scaled by   0.380
 Iteration  1 RMS(Cart)=  0.05850645 RMS(Int)=  0.00486394
 Iteration  2 RMS(Cart)=  0.00390277 RMS(Int)=  0.00020489
 Iteration  3 RMS(Cart)=  0.00001465 RMS(Int)=  0.00020395
 Iteration  4 RMS(Cart)=  0.00000000 RMS(Int)=  0.00020395
 Variable       Old X    -DE/DX   Delta X   Delta X   Delta X     New X
                                 (Linear)    (Quad)   (Total)
    R1        2.02201   0.01593   0.00000   0.01357   0.01357   2.03558
    R2        2.02201   0.01555   0.00000   0.01374   0.01374   2.03575
    R3        2.02201   0.01593   0.00000   0.01329   0.01329   2.03530
    R4        2.26767   0.00534   0.00000   0.00113   0.00113   2.26880
    R5        2.45664   0.00587   0.00000   0.03132   0.03132   2.48796
    R6        1.81414   0.01521   0.00000   0.01054   0.01054   1.82467
    A1        1.91063   0.00727   0.00000   0.02321   0.02303   1.93367
    A2        1.91063   0.00704   0.00000   0.02253   0.02241   1.93304
    A3        1.91063  -0.00531   0.00000  -0.02008  -0.02023   1.89040
    A4        1.91063   0.00728   0.00000   0.01896   0.01843   1.92907
    A5        1.91063  -0.01097   0.00000  -0.03613  -0.03646   1.87418
    A6        1.91063  -0.00532   0.00000  -0.00849  -0.00880   1.90184
    A7        1.91114  -0.01281   0.00000  -0.05752  -0.05752   1.85361
    A8        3.14159   0.00365   0.00000   0.02601   0.02595   3.16754
    A9        3.14159   0.00000   0.00000   0.07785   0.07789   3.21948
    D1        1.04526   0.00048   0.00000   0.15549   0.15544   1.20070
    D2        3.13965   0.00000   0.00000   0.16532   0.16503  -2.97850
    D3       -1.04914  -0.00048   0.00000   0.15368   0.15402  -0.89512
         Item               Value     Threshold  Converged?
 Maximum Force            0.015928     0.000450     NO 
 RMS     Force            0.009290     0.000300     NO 
 Maximum Displacement     0.156841     0.001800     NO 
 RMS     Displacement     0.059923     0.001200     NO 
 Predicted change in Energy=-2.346066D-03
 GradGradGradGradGradGradGradGradGradGradGradGradGradGradGradGradGradGrad

                          Input orientation:                          
 ---------------------------------------------------------------------
 Center     Atomic      Atomic             Coordinates (Angstroms)
 Number     Number       Type             X           Y           Z
 ---------------------------------------------------------------------
      1          6           0        0.743284    1.770699   -0.867212
      2          1           0        1.114513    2.285096    0.003367
      3          1           0        1.081422    2.252716   -1.769342
      4          1           0       -0.332200    1.716017   -0.848553
      5          1           0        1.190734    0.656595   -0.866465
      6          8           0        1.619922   -0.588044   -0.860567
      7          1           0        1.174971   -1.023004   -0.122215
 ---------------------------------------------------------------------
                    Distance matrix (angstroms):
                    1          2          3          4          5
     1  C    0.000000
     2  H    1.077182   0.000000
     3  H    1.077273   1.773313   0.000000
     4  H    1.077035   1.772737   1.770375   0.000000
     5  H    1.200600   1.847819   1.837046   1.855270   0.000000
     6  O    2.516387   3.042491   3.030804   3.019871   1.316572
     7  H    2.923379   3.311034   3.667712   3.209574   1.837173
                    6          7
     6  O    0.000000
     7  H    0.965575   0.000000
 Stoichiometry    CH5O(2)
 Framework group  C1[X(CH5O)]
 Deg. of freedom    15
 Full point group                 C1      NOp   1
 Largest Abelian subgroup         C1      NOp   1
 Largest concise Abelian subgroup C1      NOp   1
                         Standard orientation:                         
 ---------------------------------------------------------------------
 Center     Atomic      Atomic             Coordinates (Angstroms)
 Number     Number       Type             X           Y           Z
 ---------------------------------------------------------------------
      1          6           0       -1.216263   -0.011317   -0.000130
      2          1           0       -1.548311   -0.398464    0.948650
      3          1           0       -1.601505    0.981271   -0.164068
      4          1           0       -1.508035   -0.667079   -0.803155
      5          1           0       -0.018521    0.068126    0.023192
      6          8           0        1.297134    0.111324   -0.000198
      7          1           0        1.596876   -0.806546   -0.002254
 ---------------------------------------------------------------------
 Rotational constants (GHZ):    127.0438887      9.0478799      8.9187885
 Standard basis: 6-31+G(d,p) (6D, 7F)
 There are    63 symmetry adapted basis functions of A   symmetry.
 Integral buffers will be    262144 words long.
 Raffenetti 2 integral format.
 Two-electron integral symmetry is turned on.
    63 basis functions,    99 primitive gaussians,    63 cartesian basis functions
    10 alpha electrons        9 beta electrons
       nuclear repulsion energy        36.9699654753 Hartrees.
 NAtoms=    7 NActive=    7 NUniq=    7 SFac= 7.50D-01 NAtFMM=   80 NAOKFM=F Big=F
 One-electron integrals computed using PRISM.
 NBasis=    63 RedAO= T  NBF=    63
 NBsUse=    63 1.00D-06 NBFU=    63
 Initial guess read from the read-write file.
 B after Tr=     0.000000    0.000000    0.000000
         Rot=    1.000000    0.000000    0.000000    0.000000 Ang=   0.00 deg.
 Initial guess orbital symmetries:
 Alpha Orbitals:
       Occupied  (A) (A) (A) (A) (A) (A) (A) (A) (A) (A)
       Virtual   (A) (A) (A) (A) (A) (A) (A) (A) (A) (A) (A) (A)
                 (A) (A) (A) (A) (A) (A) (A) (A) (A) (A) (A) (A)
                 (A) (A) (A) (A) (A) (A) (A) (A) (A) (A) (A) (A)
                 (A) (A) (A) (A) (A) (A) (A) (A) (A) (A) (A) (A)
                 (A) (A) (A) (A) (A)
 Beta  Orbitals:
       Occupied  (A) (A) (A) (A) (A) (A) (A) (A) (A)
       Virtual   (A) (A) (A) (A) (A) (A) (A) (A) (A) (A) (A) (A)
                 (A) (A) (A) (A) (A) (A) (A) (A) (A) (A) (A) (A)
                 (A) (A) (A) (A) (A) (A) (A) (A) (A) (A) (A) (A)
                 (A) (A) (A) (A) (A) (A) (A) (A) (A) (A) (A) (A)
                 (A) (A) (A) (A) (A) (A)
 Initial guess <Sx>= 0.0000 <Sy>= 0.0000 <Sz>= 0.5000 <S**2>= 0.8002 S= 0.5248
 Harris functional with IExCor=  402 diagonalized for initial guess.
 ExpMin= 4.38D-02 ExpMax= 5.48D+03 ExpMxC= 8.25D+02 IAcc=2 IRadAn=         0 AccDes= 0.00D+00
 HarFok:  IExCor=  402 AccDes= 0.00D+00 IRadAn=         0 IDoV= 1
 ScaDFX=  1.000000  1.000000  1.000000  1.000000
 FoFCou: FMM=F IPFlag=           0 FMFlag=      100000 FMFlg1=           0
         NFxFlg=           0 DoJE=T BraDBF=F KetDBF=T FulRan=T
         Omega=  0.000000  0.000000  1.000000  0.000000  0.000000 ICntrl=     500 IOpCl=  0
         NMat0=    1 NMatS0=    1 NMatT0=    0 NMatD0=    1 NMtDS0=    0 NMtDT0=    0
         I1Cent=           4 NGrid=           0.
 Petite list used in FoFCou.
 Requested convergence on RMS density matrix=1.00D-08 within 128 cycles.
 Requested convergence on MAX density matrix=1.00D-06.
 Requested convergence on             energy=1.00D-06.
 No special actions if energy rises.
 Keep R1 and R2 ints in memory in canonical form, NReq=5032494.
 SCF Done:  E(UB3LYP) =  -116.259775076     A.U. after   15 cycles
             Convg  =    0.4156D-08             -V/T =  2.0088
 <Sx>= 0.0000 <Sy>= 0.0000 <Sz>= 0.5000 <S**2>= 0.7563 S= 0.5032
 <L.S>= 0.000000000000E+00
 Annihilation of the first spin contaminant:
 S**2 before annihilation     0.7563,   after     0.7500
 Calling FoFJK, ICntrl=      2127 FMM=F ISym2X=0 I1Cent= 0 IOpClX= 1 NMat=1 NMatS=1 NMatT=0.
 ***** Axes restored to original set *****
 -------------------------------------------------------------------
 Center     Atomic                   Forces (Hartrees/Bohr)
 Number     Number              X              Y              Z
 -------------------------------------------------------------------
      1        6          -0.003853672    0.005582796    0.002770353
      2        1           0.005464706    0.001737419    0.009113749
      3        1           0.005881610   -0.000206049   -0.009693010
      4        1          -0.009894454   -0.004330023    0.000188039
      5        1          -0.000483182    0.000437672   -0.000598077
      6        8           0.009522748   -0.002788396   -0.010067184
      7        1          -0.006637756   -0.000433419    0.008286129
 -------------------------------------------------------------------
 Cartesian Forces:  Max     0.010067184 RMS     0.005889485

 GradGradGradGradGradGradGradGradGradGradGradGradGradGradGradGradGradGrad
 Berny optimization.
 Internal  Forces:  Max     0.010103956 RMS     0.005920163
 Search for a saddle point.
 Step number   2 out of a maximum of   28
 All quantities printed in internal units (Hartrees-Bohrs-Radians)
 Swaping is turned off.
 Update second derivatives using D2CorX and points    1    2
 The second derivative matrix:
                          R1        R2        R3        R4        R5
           R1           0.39492
           R2           0.00107   0.39583
           R3           0.00115   0.00107   0.39492
           R4           0.00124   0.00063   0.00124   0.17291
           R5          -0.00003  -0.00015  -0.00004   0.09902   0.03294
           R6           0.00005  -0.00019   0.00005   0.00504  -0.00789
           A1           0.00759   0.00737  -0.00349  -0.01093   0.00511
           A2           0.00761  -0.00350   0.00759  -0.01136   0.00504
           A3           0.00077  -0.00617  -0.00617   0.01249  -0.00421
           A4          -0.00348   0.00738   0.00759  -0.01092   0.00512
           A5          -0.00627   0.00113  -0.00625   0.00819  -0.00671
           A6          -0.00618  -0.00618   0.00076   0.01247  -0.00422
           A7           0.00013  -0.00137   0.00015   0.00151  -0.00520
           A8           0.00183  -0.00393   0.00182   0.00085   0.00067
           A9          -0.00216  -0.00010   0.00197  -0.00010  -0.00017
           D1          -0.00021  -0.00552   0.00521   0.00037   0.00003
           D2           0.00567  -0.00023  -0.00610  -0.00021  -0.00035
           D3          -0.00562   0.00509  -0.00020  -0.00075  -0.00073
                          R6        A1        A2        A3        A4
           R6           0.55971
           A1           0.00100   0.06037
           A2           0.00095  -0.00446   0.06141
           A3          -0.00054  -0.02569  -0.02573   0.06938
           A4           0.00100  -0.00389  -0.00447  -0.00142   0.06034
           A5          -0.00183  -0.02470  -0.00083  -0.00848  -0.02469
           A6          -0.00054  -0.00137  -0.02568  -0.00818  -0.02565
           A7           0.00262  -0.00019   0.00084  -0.00170  -0.00018
           A8           0.00182  -0.00228   0.00985  -0.00001  -0.00229
           A9          -0.00007  -0.00432   0.00016  -0.00045   0.00465
           D1          -0.00019  -0.02114   0.02053   0.00120   0.00030
           D2          -0.00015   0.02085   0.00033   0.00699  -0.02018
           D3          -0.00010   0.00025  -0.01999  -0.00481   0.02169
                          A5        A6        A7        A8        A9
           A5           0.06692
           A6          -0.00850   0.06938
           A7           0.00251  -0.00174   0.07208
           A8          -0.00506   0.00001  -0.00417   0.02349
           A9          -0.00004   0.00061  -0.00005   0.00005   0.00470
           D1          -0.00487   0.00517   0.00018   0.00233   0.00110
           D2          -0.00006  -0.00663  -0.00010   0.00011  -0.00395
           D3           0.00484  -0.00085  -0.00022  -0.00218   0.00102
                          D1        D2        D3
           D1           0.01862
           D2          -0.00931   0.01953
           D3          -0.00929  -0.00947   0.01834
     Eigenvalues ---   -0.02325  -0.00019   0.00424   0.02156   0.06793
     Eigenvalues ---    0.07013   0.07426   0.10014   0.10048   0.10497
     Eigenvalues ---    0.22710   0.39464   0.39531   0.39837   0.55989
     Eigenvalues --- 1000.000001000.000001000.00000
 Eigenvectors required to have negative eigenvalues:
                          R5        R4        A5        A6        A3
   1                    0.86431  -0.46282   0.08028   0.07736   0.07518
                          A2        A1        A4        A7        A8
   1                   -0.07482  -0.07475  -0.07217   0.05599   0.01799
 RFO step:  Lambda0=5.818523900D-06 Lambda=-3.20281861D-03.
 Linear search not attempted -- option 19 set.
 Maximum step size (   0.300) exceeded in Quadratic search.
    -- Step size scaled by   0.391
 Iteration  1 RMS(Cart)=  0.05770699 RMS(Int)=  0.00480268
 Iteration  2 RMS(Cart)=  0.00367964 RMS(Int)=  0.00010887
 Iteration  3 RMS(Cart)=  0.00001239 RMS(Int)=  0.00010757
 Iteration  4 RMS(Cart)=  0.00000000 RMS(Int)=  0.00010757
 Variable       Old X    -DE/DX   Delta X   Delta X   Delta X     New X
                                 (Linear)    (Quad)   (Total)
    R1        2.03558   0.01008   0.00000   0.00914   0.00914   2.04472
    R2        2.03575   0.00987   0.00000   0.00926   0.00926   2.04501
    R3        2.03530   0.01010   0.00000   0.00899   0.00899   2.04430
    R4        2.26880   0.00348   0.00000   0.00613   0.00613   2.27493
    R5        2.48796   0.00398   0.00000   0.01346   0.01346   2.50143
    R6        1.82467   0.00959   0.00000   0.00688   0.00688   1.83155
    A1        1.93367   0.00450   0.00000   0.01606   0.01598   1.94964
    A2        1.93304   0.00438   0.00000   0.01536   0.01527   1.94831
    A3        1.89040  -0.00347   0.00000  -0.01673  -0.01681   1.87359
    A4        1.92907   0.00452   0.00000   0.01266   0.01239   1.94145
    A5        1.87418  -0.00706   0.00000  -0.02414  -0.02430   1.84988
    A6        1.90184  -0.00355   0.00000  -0.00548  -0.00565   1.89619
    A7        1.85361  -0.00835   0.00000  -0.04101  -0.04101   1.81260
    A8        3.16754   0.00240   0.00000   0.01851   0.01849   3.18603
    A9        3.21948  -0.00004   0.00000   0.06446   0.06448   3.28396
    D1        1.20070   0.00034   0.00000   0.16230   0.16230   1.36299
    D2       -2.97850  -0.00003   0.00000   0.16989   0.16973  -2.80878
    D3       -0.89512  -0.00018   0.00000   0.16295   0.16312  -0.73200
         Item               Value     Threshold  Converged?
 Maximum Force            0.010104     0.000450     NO 
 RMS     Force            0.005920     0.000300     NO 
 Maximum Displacement     0.144838     0.001800     NO 
 RMS     Displacement     0.058473     0.001200     NO 
 Predicted change in Energy=-1.035439D-03
 GradGradGradGradGradGradGradGradGradGradGradGradGradGradGradGradGradGrad

                          Input orientation:                          
 ---------------------------------------------------------------------
 Center     Atomic      Atomic             Coordinates (Angstroms)
 Number     Number       Type             X           Y           Z
 ---------------------------------------------------------------------
      1          6           0        0.744135    1.773029   -0.862032
      2          1           0        1.127624    2.302697    0.000034
      3          1           0        1.061181    2.233732   -1.788496
      4          1           0       -0.332310    1.673185   -0.822338
      5          1           0        1.233206    0.673036   -0.854302
      6          8           0        1.660485   -0.579643   -0.834195
      7          1           0        1.098326   -1.005961   -0.169659
 ---------------------------------------------------------------------
                    Distance matrix (angstroms):
                    1          2          3          4          5
     1  C    0.000000
     2  H    1.082021   0.000000
     3  H    1.082174   1.791092   0.000000
     4  H    1.081795   1.789969   1.785915   0.000000
     5  H    1.203842   1.843050   1.827042   1.857999   0.000000
     6  O    2.524982   3.047583   3.030665   3.007758   1.323697
     7  H    2.885762   3.313136   3.621826   3.106531   1.818230
                    6          7
     6  O    0.000000
     7  H    0.969216   0.000000
 Stoichiometry    CH5O(2)
 Framework group  C1[X(CH5O)]
 Deg. of freedom    15
 Full point group                 C1      NOp   1
 Largest Abelian subgroup         C1      NOp   1
 Largest concise Abelian subgroup C1      NOp   1
                         Standard orientation:                         
 ---------------------------------------------------------------------
 Center     Atomic      Atomic             Coordinates (Angstroms)
 Number     Number       Type             X           Y           Z
 ---------------------------------------------------------------------
      1          6           0        1.219922    0.010903   -0.000173
      2          1           0        1.553978    0.240771    1.002990
      3          1           0        1.591180   -0.948645   -0.335634
      4          1           0        1.479470    0.796799   -0.696795
      5          1           0        0.020960   -0.091397    0.035337
      6          8           0       -1.302109   -0.111154   -0.000343
      7          1           0       -1.548249    0.826285   -0.002114
 ---------------------------------------------------------------------
 Rotational constants (GHZ):    124.0797607      9.0336218      8.9004503
 Standard basis: 6-31+G(d,p) (6D, 7F)
 There are    63 symmetry adapted basis functions of A   symmetry.
 Integral buffers will be    262144 words long.
 Raffenetti 2 integral format.
 Two-electron integral symmetry is turned on.
    63 basis functions,    99 primitive gaussians,    63 cartesian basis functions
    10 alpha electrons        9 beta electrons
       nuclear repulsion energy        36.8764081576 Hartrees.
 NAtoms=    7 NActive=    7 NUniq=    7 SFac= 7.50D-01 NAtFMM=   80 NAOKFM=F Big=F
 One-electron integrals computed using PRISM.
 NBasis=    63 RedAO= T  NBF=    63
 NBsUse=    63 1.00D-06 NBFU=    63
 Initial guess read from the read-write file.
 B after Tr=     0.000000    0.000000    0.000000
         Rot=    1.000000    0.000000    0.000000    0.000000 Ang=   0.00 deg.
 Initial guess orbital symmetries:
 Alpha Orbitals:
       Occupied  (A) (A) (A) (A) (A) (A) (A) (A) (A) (A)
       Virtual   (A) (A) (A) (A) (A) (A) (A) (A) (A) (A) (A) (A)
                 (A) (A) (A) (A) (A) (A) (A) (A) (A) (A) (A) (A)
                 (A) (A) (A) (A) (A) (A) (A) (A) (A) (A) (A) (A)
                 (A) (A) (A) (A) (A) (A) (A) (A) (A) (A) (A) (A)
                 (A) (A) (A) (A) (A)
 Beta  Orbitals:
       Occupied  (A) (A) (A) (A) (A) (A) (A) (A) (A)
       Virtual   (A) (A) (A) (A) (A) (A) (A) (A) (A) (A) (A) (A)
                 (A) (A) (A) (A) (A) (A) (A) (A) (A) (A) (A) (A)
                 (A) (A) (A) (A) (A) (A) (A) (A) (A) (A) (A) (A)
                 (A) (A) (A) (A) (A) (A) (A) (A) (A) (A) (A) (A)
                 (A) (A) (A) (A) (A) (A)
 Initial guess <Sx>= 0.0000 <Sy>= 0.0000 <Sz>= 0.5000 <S**2>= 0.8011 S= 0.5252
 Harris functional with IExCor=  402 diagonalized for initial guess.
 ExpMin= 4.38D-02 ExpMax= 5.48D+03 ExpMxC= 8.25D+02 IAcc=2 IRadAn=         0 AccDes= 0.00D+00
 HarFok:  IExCor=  402 AccDes= 0.00D+00 IRadAn=         0 IDoV= 1
 ScaDFX=  1.000000  1.000000  1.000000  1.000000
 FoFCou: FMM=F IPFlag=           0 FMFlag=      100000 FMFlg1=           0
         NFxFlg=           0 DoJE=T BraDBF=F KetDBF=T FulRan=T
         Omega=  0.000000  0.000000  1.000000  0.000000  0.000000 ICntrl=     500 IOpCl=  0
         NMat0=    1 NMatS0=    1 NMatT0=    0 NMatD0=    1 NMtDS0=    0 NMtDT0=    0
         I1Cent=           4 NGrid=           0.
 Petite list used in FoFCou.
 Requested convergence on RMS density matrix=1.00D-08 within 128 cycles.
 Requested convergence on MAX density matrix=1.00D-06.
 Requested convergence on             energy=1.00D-06.
 No special actions if energy rises.
 Keep R1 and R2 ints in memory in canonical form, NReq=5032932.
 SCF Done:  E(UB3LYP) =  -116.260798464     A.U. after   15 cycles
             Convg  =    0.2973D-08             -V/T =  2.0092
 <Sx>= 0.0000 <Sy>= 0.0000 <Sz>= 0.5000 <S**2>= 0.7564 S= 0.5032
 <L.S>= 0.000000000000E+00
 Annihilation of the first spin contaminant:
 S**2 before annihilation     0.7564,   after     0.7500
 Calling FoFJK, ICntrl=      2127 FMM=F ISym2X=0 I1Cent= 0 IOpClX= 1 NMat=1 NMatS=1 NMatT=0.
 ***** Axes restored to original set *****
 -------------------------------------------------------------------
 Center     Atomic                   Forces (Hartrees/Bohr)
 Number     Number              X              Y              Z
 -------------------------------------------------------------------
      1        6          -0.002339658    0.003442317    0.001571055
      2        1           0.003458299    0.001283333    0.005518584
      3        1           0.003567598   -0.000050988   -0.005994699
      4        1          -0.006043966   -0.002877099    0.000346302
      5        1          -0.000793111    0.000292813   -0.000631119
      6        8           0.006958463   -0.001871392   -0.005248230
      7        1          -0.004807625   -0.000218985    0.004438107
 -------------------------------------------------------------------
 Cartesian Forces:  Max     0.006958463 RMS     0.003657247

 GradGradGradGradGradGradGradGradGradGradGradGradGradGradGradGradGradGrad
 Berny optimization.
 Internal  Forces:  Max     0.006293320 RMS     0.003654087
 Search for a saddle point.
 Step number   3 out of a maximum of   28
 All quantities printed in internal units (Hartrees-Bohrs-Radians)
 Swaping is turned off.
 Update second derivatives using D2CorX and points    1    2    3
 The second derivative matrix:
                          R1        R2        R3        R4        R5
           R1           0.39491
           R2           0.00107   0.39582
           R3           0.00114   0.00107   0.39491
           R4           0.00123   0.00062   0.00124   0.17291
           R5          -0.00005  -0.00017  -0.00005   0.09902   0.03292
           R6           0.00005  -0.00020   0.00005   0.00504  -0.00791
           A1           0.00758   0.00735  -0.00351  -0.01094   0.00507
           A2           0.00759  -0.00352   0.00757  -0.01137   0.00501
           A3           0.00079  -0.00614  -0.00614   0.01251  -0.00416
           A4          -0.00349   0.00737   0.00758  -0.01092   0.00510
           A5          -0.00624   0.00118  -0.00621   0.00822  -0.00662
           A6          -0.00617  -0.00617   0.00077   0.01247  -0.00420
           A7           0.00017  -0.00132   0.00021   0.00154  -0.00510
           A8           0.00181  -0.00396   0.00180   0.00083   0.00062
           A9          -0.00223  -0.00019   0.00188  -0.00015  -0.00032
           D1          -0.00036  -0.00570   0.00501   0.00027  -0.00032
           D2           0.00552  -0.00042  -0.00630  -0.00031  -0.00072
           D3          -0.00576   0.00490  -0.00039  -0.00085  -0.00108
                          R6        A1        A2        A3        A4
           R6           0.55970
           A1           0.00099   0.06038
           A2           0.00094  -0.00446   0.06141
           A3          -0.00052  -0.02572  -0.02575   0.06945
           A4           0.00099  -0.00392  -0.00450  -0.00138   0.06032
           A5          -0.00181  -0.02478  -0.00088  -0.00833  -0.02464
           A6          -0.00054  -0.00138  -0.02569  -0.00815  -0.02563
           A7           0.00265  -0.00023   0.00083  -0.00160  -0.00010
           A8           0.00181  -0.00226   0.00986  -0.00006  -0.00232
           A9          -0.00012  -0.00428   0.00017  -0.00058   0.00454
           D1          -0.00030  -0.02109   0.02051   0.00098   0.00005
           D2          -0.00026   0.02090   0.00031   0.00677  -0.02044
           D3          -0.00021   0.00029  -0.02001  -0.00502   0.02145
                          A5        A6        A7        A8        A9
           A5           0.06726
           A6          -0.00843   0.06940
           A7           0.00276  -0.00169   0.07222
           A8          -0.00518  -0.00001  -0.00424   0.02352
           A9          -0.00036   0.00054  -0.00023   0.00014   0.00491
           D1          -0.00543   0.00504  -0.00005   0.00245   0.00134
           D2          -0.00064  -0.00676  -0.00032   0.00023  -0.00373
           D3           0.00430  -0.00097  -0.00043  -0.00208   0.00123
                          D1        D2        D3
           D1           0.01869
           D2          -0.00929   0.01950
           D3          -0.00928  -0.00951   0.01829
     Eigenvalues ---   -0.02325  -0.00003   0.00430   0.02156   0.06789
     Eigenvalues ---    0.07006   0.07449   0.10014   0.10054   0.10496
     Eigenvalues ---    0.22711   0.39464   0.39531   0.39834   0.55989
     Eigenvalues --- 1000.000001000.000001000.00000
 Eigenvectors required to have negative eigenvalues:
                          R5        R4        A5        A6        A3
   1                    0.86379  -0.46235   0.08091   0.07966   0.07542
                          A1        A2        A4        A7        D2
   1                   -0.07408  -0.07259  -0.06978   0.05497   0.03055
 RFO step:  Lambda0=3.451225146D-08 Lambda=-1.22677351D-03.
 Linear search not attempted -- option 19 set.
 Iteration  1 RMS(Cart)=  0.03423121 RMS(Int)=  0.00120530
 Iteration  2 RMS(Cart)=  0.00123248 RMS(Int)=  0.00024944
 Iteration  3 RMS(Cart)=  0.00000089 RMS(Int)=  0.00024944
 Variable       Old X    -DE/DX   Delta X   Delta X   Delta X     New X
                                 (Linear)    (Quad)   (Total)
    R1        2.04472   0.00625   0.00000   0.01394   0.01394   2.05866
    R2        2.04501   0.00615   0.00000   0.01440   0.01440   2.05941
    R3        2.04430   0.00629   0.00000   0.01418   0.01418   2.05847
    R4        2.27493   0.00219   0.00000   0.00885   0.00886   2.28379
    R5        2.50143   0.00266   0.00000   0.02202   0.02202   2.52345
    R6        1.83155   0.00593   0.00000   0.01072   0.01072   1.84227
    A1        1.94964   0.00263   0.00000   0.02186   0.02130   1.97094
    A2        1.94831   0.00258   0.00000   0.02363   0.02319   1.97150
    A3        1.87359  -0.00216   0.00000  -0.01803  -0.01846   1.85513
    A4        1.94145   0.00273   0.00000   0.02411   0.02379   1.96524
    A5        1.84988  -0.00422   0.00000  -0.03891  -0.03929   1.81059
    A6        1.89619  -0.00229   0.00000  -0.01914  -0.01947   1.87672
    A7        1.81260  -0.00509   0.00000  -0.06583  -0.06583   1.74676
    A8        3.18603   0.00145   0.00000   0.03293   0.03293   3.21896
    A9        3.28396  -0.00014   0.00000  -0.03333  -0.03335   3.25060
    D1        1.36299   0.00021   0.00000   0.00640   0.00628   1.36927
    D2       -2.80878  -0.00006   0.00000  -0.00022  -0.00001  -2.80878
    D3       -0.73200  -0.00002   0.00000   0.00692   0.00683  -0.72517
         Item               Value     Threshold  Converged?
 Maximum Force            0.006293     0.000450     NO 
 RMS     Force            0.003654     0.000300     NO 
 Maximum Displacement     0.098546     0.001800     NO 
 RMS     Displacement     0.034814     0.001200     NO 
 Predicted change in Energy=-6.208346D-04
 GradGradGradGradGradGradGradGradGradGradGradGradGradGradGradGradGradGrad

                          Input orientation:                          
 ---------------------------------------------------------------------
 Center     Atomic      Atomic             Coordinates (Angstroms)
 Number     Number       Type             X           Y           Z
 ---------------------------------------------------------------------
      1          6           0        0.737668    1.777091   -0.859384
      2          1           0        1.140258    2.280319    0.018949
      3          1           0        1.069465    2.226143   -1.795287
      4          1           0       -0.343123    1.648006   -0.817041
      5          1           0        1.235331    0.675929   -0.877073
      6          8           0        1.677055   -0.583601   -0.836758
      7          1           0        1.075991   -0.953813   -0.164394
 ---------------------------------------------------------------------
                    Distance matrix (angstroms):
                    1          2          3          4          5
     1  C    0.000000
     2  H    1.089397   0.000000
     3  H    1.089794   1.816425   0.000000
     4  H    1.089296   1.816348   1.812902   0.000000
     5  H    1.208528   1.840098   1.809362   1.854739   0.000000
     6  O    2.540833   3.036844   3.030282   3.010247   1.335351
     7  H    2.838188   3.239962   3.573791   3.034683   1.785878
                    6          7
     6  O    0.000000
     7  H    0.974889   0.000000
 Stoichiometry    CH5O(2)
 Framework group  C1[X(CH5O)]
 Deg. of freedom    15
 Full point group                 C1      NOp   1
 Largest Abelian subgroup         C1      NOp   1
 Largest concise Abelian subgroup C1      NOp   1
                         Standard orientation:                         
 ---------------------------------------------------------------------
 Center     Atomic      Atomic             Coordinates (Angstroms)
 Number     Number       Type             X           Y           Z
 ---------------------------------------------------------------------
      1          6           0        1.227697    0.010227    0.000028
      2          1           0        1.528243    0.234681    1.022807
      3          1           0        1.577274   -0.963986   -0.341082
      4          1           0        1.469245    0.809941   -0.699027
      5          1           0        0.024959   -0.106562    0.017992
      6          8           0       -1.310265   -0.110528    0.000002
      7          1           0       -1.483782    0.848794   -0.000875
 ---------------------------------------------------------------------
 Rotational constants (GHZ):    120.1493944      8.9917817      8.8535484
 Standard basis: 6-31+G(d,p) (6D, 7F)
 There are    63 symmetry adapted basis functions of A   symmetry.
 Integral buffers will be    262144 words long.
 Raffenetti 2 integral format.
 Two-electron integral symmetry is turned on.
    63 basis functions,    99 primitive gaussians,    63 cartesian basis functions
    10 alpha electrons        9 beta electrons
       nuclear repulsion energy        36.7177136583 Hartrees.
 NAtoms=    7 NActive=    7 NUniq=    7 SFac= 7.50D-01 NAtFMM=   80 NAOKFM=F Big=F
 One-electron integrals computed using PRISM.
 NBasis=    63 RedAO= T  NBF=    63
 NBsUse=    63 1.00D-06 NBFU=    63
 Initial guess read from the read-write file.
 B after Tr=     0.000000    0.000000    0.000000
         Rot=    1.000000    0.000000    0.000000    0.000000 Ang=   0.00 deg.
 Initial guess orbital symmetries:
 Alpha Orbitals:
       Occupied  (A) (A) (A) (A) (A) (A) (A) (A) (A) (A)
       Virtual   (A) (A) (A) (A) (A) (A) (A) (A) (A) (A) (A) (A)
                 (A) (A) (A) (A) (A) (A) (A) (A) (A) (A) (A) (A)
                 (A) (A) (A) (A) (A) (A) (A) (A) (A) (A) (A) (A)
                 (A) (A) (A) (A) (A) (A) (A) (A) (A) (A) (A) (A)
                 (A) (A) (A) (A) (A)
 Beta  Orbitals:
       Occupied  (A) (A) (A) (A) (A) (A) (A) (A) (A)
       Virtual   (A) (A) (A) (A) (A) (A) (A) (A) (A) (A) (A) (A)
                 (A) (A) (A) (A) (A) (A) (A) (A) (A) (A) (A) (A)
                 (A) (A) (A) (A) (A) (A) (A) (A) (A) (A) (A) (A)
                 (A) (A) (A) (A) (A) (A) (A) (A) (A) (A) (A) (A)
                 (A) (A) (A) (A) (A) (A)
 Initial guess <Sx>= 0.0000 <Sy>= 0.0000 <Sz>= 0.5000 <S**2>= 0.7566 S= 0.5033
 Harris functional with IExCor=  402 diagonalized for initial guess.
 ExpMin= 4.38D-02 ExpMax= 5.48D+03 ExpMxC= 8.25D+02 IAcc=2 IRadAn=         0 AccDes= 0.00D+00
 HarFok:  IExCor=  402 AccDes= 0.00D+00 IRadAn=         0 IDoV= 1
 ScaDFX=  1.000000  1.000000  1.000000  1.000000
 FoFCou: FMM=F IPFlag=           0 FMFlag=      100000 FMFlg1=           0
         NFxFlg=           0 DoJE=T BraDBF=F KetDBF=T FulRan=T
         Omega=  0.000000  0.000000  1.000000  0.000000  0.000000 ICntrl=     500 IOpCl=  0
         NMat0=    1 NMatS0=    1 NMatT0=    0 NMatD0=    1 NMtDS0=    0 NMtDT0=    0
         I1Cent=           4 NGrid=           0.
 Petite list used in FoFCou.
 Requested convergence on RMS density matrix=1.00D-08 within 128 cycles.
 Requested convergence on MAX density matrix=1.00D-06.
 Requested convergence on             energy=1.00D-06.
 No special actions if energy rises.
 Keep R1 and R2 ints in memory in canonical form, NReq=5032932.
 SCF Done:  E(UB3LYP) =  -116.261428089     A.U. after   13 cycles
             Convg  =    0.4921D-08             -V/T =  2.0096
 <Sx>= 0.0000 <Sy>= 0.0000 <Sz>= 0.5000 <S**2>= 0.7567 S= 0.5033
 <L.S>= 0.000000000000E+00
 Annihilation of the first spin contaminant:
 S**2 before annihilation     0.7567,   after     0.7500
 Calling FoFJK, ICntrl=      2127 FMM=F ISym2X=0 I1Cent= 0 IOpClX= 1 NMat=1 NMatS=1 NMatT=0.
 ***** Axes restored to original set *****
 -------------------------------------------------------------------
 Center     Atomic                   Forces (Hartrees/Bohr)
 Number     Number              X              Y              Z
 -------------------------------------------------------------------
      1        6           0.000193718   -0.000446200    0.000312658
      2        1           0.000175266    0.000394437    0.000332758
      3        1           0.000132532    0.000393037   -0.000431996
      4        1          -0.000567940    0.000041960   -0.000034522
      5        1          -0.000239692    0.000435007   -0.000402782
      6        8           0.000573634   -0.000542544   -0.000110641
      7        1          -0.000267518   -0.000275697    0.000334525
 -------------------------------------------------------------------
 Cartesian Forces:  Max     0.000573634 RMS     0.000353191

 GradGradGradGradGradGradGradGradGradGradGradGradGradGradGradGradGradGrad
 Berny optimization.
 Internal  Forces:  Max     0.000879998 RMS     0.000363983
 Search for a saddle point.
 Step number   4 out of a maximum of   28
 All quantities printed in internal units (Hartrees-Bohrs-Radians)
 Swaping is turned off.
 Update second derivatives using D2CorX and points    2    3    4
 The second derivative matrix:
                          R1        R2        R3        R4        R5
           R1           0.39364
           R2          -0.00030   0.39436
           R3          -0.00020  -0.00037   0.39351
           R4           0.00034  -0.00033   0.00030   0.17229
           R5          -0.00215  -0.00241  -0.00226   0.09755   0.02945
           R6          -0.00108  -0.00140  -0.00113   0.00426  -0.00975
           A1           0.00690   0.00660  -0.00426  -0.01147   0.00389
           A2           0.00659  -0.00462   0.00649  -0.01212   0.00330
           A3           0.00109  -0.00578  -0.00578   0.01279  -0.00358
           A4          -0.00438   0.00638   0.00660  -0.01161   0.00355
           A5          -0.00514   0.00243  -0.00498   0.00910  -0.00466
           A6          -0.00580  -0.00574   0.00120   0.01280  -0.00352
           A7           0.00250   0.00128   0.00276   0.00335  -0.00104
           A8           0.00013  -0.00580  -0.00001  -0.00041  -0.00224
           A9          -0.00104   0.00111   0.00315   0.00073   0.00169
           D1          -0.00128  -0.00672   0.00402  -0.00043  -0.00190
           D2           0.00477  -0.00125  -0.00711  -0.00088  -0.00200
           D3          -0.00663   0.00394  -0.00133  -0.00151  -0.00258
                          R6        A1        A2        A3        A4
           R6           0.55872
           A1           0.00029   0.06097
           A2          -0.00004  -0.00416   0.06134
           A3          -0.00013  -0.02661  -0.02641   0.07053
           A4           0.00010  -0.00348  -0.00441  -0.00218   0.06058
           A5          -0.00063  -0.02601  -0.00159  -0.00659  -0.02561
           A6          -0.00010  -0.00217  -0.02625  -0.00715  -0.02632
           A7           0.00502  -0.00168   0.00033   0.00081  -0.00105
           A8           0.00021  -0.00221   0.00936  -0.00070  -0.00260
           A9           0.00102  -0.00444   0.00042   0.00000   0.00462
           D1          -0.00121  -0.02076   0.02050   0.00030   0.00019
           D2          -0.00099   0.02110   0.00024   0.00629  -0.02039
           D3          -0.00108   0.00073  -0.01992  -0.00580   0.02170
                          A5        A6        A7        A8        A9
           A5           0.06978
           A6          -0.00686   0.07031
           A7           0.00589   0.00043   0.07558
           A8          -0.00553  -0.00051  -0.00383   0.02223
           A9           0.00011   0.00101  -0.00017   0.00092   0.00446
           D1          -0.00620   0.00446  -0.00068   0.00204   0.00151
           D2          -0.00113  -0.00716  -0.00064  -0.00017  -0.00353
           D3           0.00333  -0.00165  -0.00138  -0.00233   0.00129
                          D1        D2        D3
           D1           0.01872
           D2          -0.00932   0.01943
           D3          -0.00914  -0.00946   0.01854
     Eigenvalues ---   -0.02432   0.00037   0.00384   0.02067   0.06813
     Eigenvalues ---    0.06992   0.07612   0.10012   0.10099   0.10859
     Eigenvalues ---    0.22582   0.39389   0.39465   0.39545   0.55900
     Eigenvalues --- 1000.000001000.000001000.00000
 Eigenvectors required to have negative eigenvalues:
                          R5        R4        D3        A6        A3
   1                    0.86466  -0.45186   0.08180   0.07518   0.06989
                          D2        A5        D1        A1        A2
   1                    0.06921   0.06791   0.06444  -0.06425  -0.05995
 RFO step:  Lambda0=2.026051923D-05 Lambda=-2.80914303D-05.
 Linear search not attempted -- option 19 set.
 Iteration  1 RMS(Cart)=  0.03682734 RMS(Int)=  0.00164486
 Iteration  2 RMS(Cart)=  0.00137826 RMS(Int)=  0.00004213
 Iteration  3 RMS(Cart)=  0.00000127 RMS(Int)=  0.00004212
 Iteration  4 RMS(Cart)=  0.00000000 RMS(Int)=  0.00004212
 Variable       Old X    -DE/DX   Delta X   Delta X   Delta X     New X
                                 (Linear)    (Quad)   (Total)
    R1        2.05866   0.00052   0.00000   0.00031   0.00031   2.05897
    R2        2.05941   0.00057   0.00000   0.00069   0.00069   2.06010
    R3        2.05847   0.00056   0.00000   0.00056   0.00056   2.05903
    R4        2.28379   0.00038   0.00000   0.00572   0.00572   2.28950
    R5        2.52345   0.00088   0.00000  -0.00805  -0.00805   2.51540
    R6        1.84227   0.00050   0.00000   0.00022   0.00022   1.84249
    A1        1.97094  -0.00022   0.00000  -0.00095  -0.00102   1.96992
    A2        1.97150  -0.00005   0.00000   0.00133   0.00140   1.97290
    A3        1.85513   0.00021   0.00000   0.00348   0.00348   1.85861
    A4        1.96524  -0.00017   0.00000   0.00196   0.00195   1.96719
    A5        1.81059   0.00019   0.00000  -0.00256  -0.00259   1.80800
    A6        1.87672   0.00013   0.00000  -0.00372  -0.00370   1.87302
    A7        1.74676   0.00018   0.00000  -0.00113  -0.00113   1.74563
    A8        3.21896   0.00029   0.00000   0.01153   0.01151   3.23046
    A9        3.25060  -0.00016   0.00000  -0.06013  -0.06014   3.19046
    D1        1.36927   0.00002   0.00000  -0.10133  -0.10145   1.26782
    D2       -2.80878  -0.00002   0.00000  -0.10827  -0.10821  -2.91700
    D3       -0.72517  -0.00001   0.00000  -0.10084  -0.10078  -0.82595
         Item               Value     Threshold  Converged?
 Maximum Force            0.000880     0.000450     NO 
 RMS     Force            0.000364     0.000300     NO 
 Maximum Displacement     0.072337     0.001800     NO 
 RMS     Displacement     0.036823     0.001200     NO 
 Predicted change in Energy=-4.400451D-06
 GradGradGradGradGradGradGradGradGradGradGradGradGradGradGradGradGradGrad

                          Input orientation:                          
 ---------------------------------------------------------------------
 Center     Atomic      Atomic             Coordinates (Angstroms)
 Number     Number       Type             X           Y           Z
 ---------------------------------------------------------------------
      1          6           0        0.734581    1.776389   -0.861661
      2          1           0        1.137141    2.254858    0.030615
      3          1           0        1.084689    2.238635   -1.784807
      4          1           0       -0.348669    1.662643   -0.832648
      5          1           0        1.213055    0.664015   -0.900986
      6          8           0        1.658829   -0.589384   -0.855386
      7          1           0        1.113021   -0.937081   -0.126115
 ---------------------------------------------------------------------
                    Distance matrix (angstroms):
                    1          2          3          4          5
     1  C    0.000000
     2  H    1.089561   0.000000
     3  H    1.090159   1.816253   0.000000
     4  H    1.089592   1.817574   1.814632   0.000000
     5  H    1.211553   1.845109   1.810261   1.854969   0.000000
     6  O    2.539913   3.024379   3.031691   3.016984   1.331091
     7  H    2.836753   3.195876   3.582909   3.065011   1.781556
                    6          7
     6  O    0.000000
     7  H    0.975006   0.000000
 Stoichiometry    CH5O(2)
 Framework group  C1[X(CH5O)]
 Deg. of freedom    15
 Full point group                 C1      NOp   1
 Largest Abelian subgroup         C1      NOp   1
 Largest concise Abelian subgroup C1      NOp   1
                         Standard orientation:                         
 ---------------------------------------------------------------------
 Center     Atomic      Atomic             Coordinates (Angstroms)
 Number     Number       Type             X           Y           Z
 ---------------------------------------------------------------------
      1          6           0        1.227518    0.010413    0.000217
      2          1           0        1.509169    0.337269    1.000707
      3          1           0        1.581199   -0.994171   -0.232522
      4          1           0        1.481516    0.735385   -0.772514
      5          1           0        0.021565   -0.105897    0.003179
      6          8           0       -1.309515   -0.110512    0.000016
      7          1           0       -1.482441    0.849036   -0.000284
 ---------------------------------------------------------------------
 Rotational constants (GHZ):    120.0440540      8.9995404      8.8607582
 Standard basis: 6-31+G(d,p) (6D, 7F)
 There are    63 symmetry adapted basis functions of A   symmetry.
 Integral buffers will be    262144 words long.
 Raffenetti 2 integral format.
 Two-electron integral symmetry is turned on.
    63 basis functions,    99 primitive gaussians,    63 cartesian basis functions
    10 alpha electrons        9 beta electrons
       nuclear repulsion energy        36.7241764753 Hartrees.
 NAtoms=    7 NActive=    7 NUniq=    7 SFac= 7.50D-01 NAtFMM=   80 NAOKFM=F Big=F
 One-electron integrals computed using PRISM.
 NBasis=    63 RedAO= T  NBF=    63
 NBsUse=    63 1.00D-06 NBFU=    63
 Initial guess read from the read-write file.
 B after Tr=     0.000000    0.000000    0.000000
         Rot=    1.000000    0.000000    0.000000    0.000000 Ang=   0.00 deg.
 Initial guess orbital symmetries:
 Alpha Orbitals:
       Occupied  (A) (A) (A) (A) (A) (A) (A) (A) (A) (A)
       Virtual   (A) (A) (A) (A) (A) (A) (A) (A) (A) (A) (A) (A)
                 (A) (A) (A) (A) (A) (A) (A) (A) (A) (A) (A) (A)
                 (A) (A) (A) (A) (A) (A) (A) (A) (A) (A) (A) (A)
                 (A) (A) (A) (A) (A) (A) (A) (A) (A) (A) (A) (A)
                 (A) (A) (A) (A) (A)
 Beta  Orbitals:
       Occupied  (A) (A) (A) (A) (A) (A) (A) (A) (A)
       Virtual   (A) (A) (A) (A) (A) (A) (A) (A) (A) (A) (A) (A)
                 (A) (A) (A) (A) (A) (A) (A) (A) (A) (A) (A) (A)
                 (A) (A) (A) (A) (A) (A) (A) (A) (A) (A) (A) (A)
                 (A) (A) (A) (A) (A) (A) (A) (A) (A) (A) (A) (A)
                 (A) (A) (A) (A) (A) (A)
 Initial guess <Sx>= 0.0000 <Sy>= 0.0000 <Sz>= 0.5000 <S**2>= 0.7567 S= 0.5033
 Harris functional with IExCor=  402 diagonalized for initial guess.
 ExpMin= 4.38D-02 ExpMax= 5.48D+03 ExpMxC= 8.25D+02 IAcc=2 IRadAn=         0 AccDes= 0.00D+00
 HarFok:  IExCor=  402 AccDes= 0.00D+00 IRadAn=         0 IDoV= 1
 ScaDFX=  1.000000  1.000000  1.000000  1.000000
 FoFCou: FMM=F IPFlag=           0 FMFlag=      100000 FMFlg1=           0
         NFxFlg=           0 DoJE=T BraDBF=F KetDBF=T FulRan=T
         Omega=  0.000000  0.000000  1.000000  0.000000  0.000000 ICntrl=     500 IOpCl=  0
         NMat0=    1 NMatS0=    1 NMatT0=    0 NMatD0=    1 NMtDS0=    0 NMtDT0=    0
         I1Cent=           4 NGrid=           0.
 Petite list used in FoFCou.
 Requested convergence on RMS density matrix=1.00D-08 within 128 cycles.
 Requested convergence on MAX density matrix=1.00D-06.
 Requested convergence on             energy=1.00D-06.
 No special actions if energy rises.
 Keep R1 and R2 ints in memory in canonical form, NReq=5032932.
 SCF Done:  E(UB3LYP) =  -116.261431966     A.U. after   12 cycles
             Convg  =    0.2411D-08             -V/T =  2.0096
 <Sx>= 0.0000 <Sy>= 0.0000 <Sz>= 0.5000 <S**2>= 0.7567 S= 0.5034
 <L.S>= 0.000000000000E+00
 Annihilation of the first spin contaminant:
 S**2 before annihilation     0.7567,   after     0.7500
 Calling FoFJK, ICntrl=      2127 FMM=F ISym2X=0 I1Cent= 0 IOpClX= 1 NMat=1 NMatS=1 NMatT=0.
 ***** Axes restored to original set *****
 -------------------------------------------------------------------
 Center     Atomic                   Forces (Hartrees/Bohr)
 Number     Number              X              Y              Z
 -------------------------------------------------------------------
      1        6           0.000127479   -0.000367997    0.000180035
      2        1           0.000096222    0.000252028    0.000211737
      3        1           0.000024947    0.000261427   -0.000269215
      4        1          -0.000348114    0.000073513   -0.000070390
      5        1           0.000024567    0.000315846   -0.000206951
      6        8           0.000174222   -0.000259286   -0.000089019
      7        1          -0.000099324   -0.000275531    0.000243803
 -------------------------------------------------------------------
 Cartesian Forces:  Max     0.000367997 RMS     0.000214765

 GradGradGradGradGradGradGradGradGradGradGradGradGradGradGradGradGradGrad
 Berny optimization.
 Internal  Forces:  Max     0.000534371 RMS     0.000240225
 Search for a saddle point.
 Step number   5 out of a maximum of   28
 All quantities printed in internal units (Hartrees-Bohrs-Radians)
 Swaping is turned off.
 Update second derivatives using D2CorX and points    1    2    3    4    5
 The second derivative matrix:
                          R1        R2        R3        R4        R5
           R1           0.39381
           R2          -0.00011   0.39457
           R3          -0.00001  -0.00017   0.39370
           R4           0.00043  -0.00023   0.00040   0.17233
           R5          -0.00181  -0.00206  -0.00191   0.09773   0.03007
           R6          -0.00093  -0.00124  -0.00098   0.00433  -0.00946
           A1           0.00700   0.00671  -0.00414  -0.01139   0.00408
           A2           0.00673  -0.00446   0.00666  -0.01202   0.00356
           A3           0.00107  -0.00582  -0.00583   0.01275  -0.00366
           A4          -0.00427   0.00651   0.00674  -0.01151   0.00375
           A5          -0.00524   0.00228  -0.00513   0.00900  -0.00491
           A6          -0.00577  -0.00572   0.00121   0.01280  -0.00350
           A7           0.00220   0.00091   0.00238   0.00308  -0.00159
           A8           0.00034  -0.00555   0.00024  -0.00026  -0.00182
           A9          -0.00063   0.00155   0.00357   0.00105   0.00235
           D1          -0.00034  -0.00570   0.00501   0.00028  -0.00033
           D2           0.00577  -0.00016  -0.00606  -0.00013  -0.00033
           D3          -0.00570   0.00495  -0.00035  -0.00080  -0.00103
                          R6        A1        A2        A3        A4
           R6           0.55886
           A1           0.00036   0.06084
           A2           0.00007  -0.00422   0.06136
           A3          -0.00017  -0.02636  -0.02623   0.07021
[...]
     2   1    -0.37   0.08  -0.08     0.54   0.09   0.10    -0.02   0.22  -0.18
     3   1     0.00   0.00  -0.18     0.39  -0.16   0.00    -0.36   0.07   0.00
     4   1     0.37  -0.08  -0.08     0.54   0.09  -0.10    -0.02   0.22   0.18
     5   1     0.00   0.00  -0.81    -0.36   0.27   0.00     0.15   0.77   0.00
     6   8     0.00   0.00   0.01    -0.01   0.00   0.00     0.01  -0.02   0.00
     7   1     0.00   0.00  -0.04    -0.07   0.01   0.00    -0.28   0.04   0.00
                    10                     11                     12
                     A                      A                      A
 Frequencies --  1448.1202              1461.2830              3072.3041
 Red. masses --     1.0596                 1.0381                 1.0227
 Frc consts  --     1.3091                 1.3060                 5.6874
 IR Inten    --     3.1924                 3.3678                 4.7429
  Atom  AN      X      Y      Z        X      Y      Z        X      Y      Z
     1   6     0.00   0.00   0.07     0.01   0.05   0.00    -0.04   0.00   0.00
     2   1     0.26   0.37  -0.09     0.11  -0.50   0.35     0.13  -0.28  -0.48
     3   1     0.00   0.00  -0.75    -0.32   0.16   0.00     0.18   0.56   0.00
     4   1    -0.26  -0.37  -0.09     0.11  -0.50  -0.35     0.13  -0.28   0.48
     5   1     0.00   0.00   0.11     0.04   0.31   0.00    -0.01   0.00   0.00
     6   8     0.00   0.00   0.00     0.00  -0.01   0.00     0.00   0.00   0.00
     7   1     0.00   0.00   0.01    -0.07   0.01   0.00     0.00   0.00   0.00
                    13                     14                     15
                     A                      A                      A
 Frequencies --  3197.2670              3200.6073              3747.1337
 Red. masses --     1.1077                 1.1082                 1.0670
 Frc consts  --     6.6715                 6.6886                 8.8271
 IR Inten    --     7.6534                 9.3593                29.0401
  Atom  AN      X      Y      Z        X      Y      Z        X      Y      Z
     1   6     0.00   0.10   0.00     0.00   0.00   0.10     0.00   0.00   0.00
     2   1     0.10  -0.20  -0.36     0.17  -0.35  -0.58     0.00   0.00   0.00
     3   1    -0.27  -0.76   0.00     0.00   0.00   0.02     0.00   0.00   0.00
     4   1     0.10  -0.19   0.35    -0.17   0.35  -0.58     0.00   0.00   0.00
     5   1     0.00   0.02   0.00     0.00   0.00   0.01    -0.02   0.01   0.00
     6   8     0.00   0.00   0.00     0.00   0.00   0.00     0.01   0.06   0.00
     7   1     0.00   0.00   0.00     0.00   0.00   0.00    -0.18  -0.98   0.00

 -------------------
 - Thermochemistry -
 -------------------
 Temperature   298.150 Kelvin.  Pressure   1.00000 Atm.
 Atom     1 has atomic number  6 and mass  12.00000
 Atom     2 has atomic number  1 and mass   1.00783
 Atom     3 has atomic number  1 and mass   1.00783
 Atom     4 has atomic number  1 and mass   1.00783
 Atom     5 has atomic number  1 and mass   1.00783
 Atom     6 has atomic number  8 and mass  15.99491
 Atom     7 has atomic number  1 and mass   1.00783
 Molecular mass:    33.03404 amu.
 Principal axes and moments of inertia in atomic units:
                           1         2         3
     Eigenvalues --    15.04496 200.26988 203.40442
           X            0.99975   0.02219   0.00000
           Y           -0.02219   0.99975   0.00000
           Z            0.00000   0.00000   1.00000
 This molecule is an asymmetric top.
 Rotational symmetry number  1.
 Rotational temperatures (Kelvin)      5.75700     0.43249     0.42582
 Rotational constants (GHZ):         119.95650     9.01155     8.87267
    1 imaginary frequencies ignored.
 Zero-point vibrational energy     133849.7 (Joules/Mol)
                                   31.99085 (Kcal/Mol)
 Warning -- explicit consideration of   3 degrees of freedom as
           vibrations may cause significant error
 Vibrational temperatures:     75.08   500.86   520.57  1115.10  1281.78
          (Kelvin)           1724.66  1846.41  1929.64  2083.52  2102.46
                             4420.35  4600.15  4604.95  5391.28
 
 Zero-point correction=                           0.050981 (Hartree/Particle)
 Thermal correction to Energy=                    0.055547
 Thermal correction to Enthalpy=                  0.056491
 Thermal correction to Gibbs Free Energy=         0.024964
 Sum of electronic and zero-point Energies=           -116.210454
 Sum of electronic and thermal Energies=              -116.205887
 Sum of electronic and thermal Enthalpies=            -116.204943
 Sum of electronic and thermal Free Energies=         -116.236470
 
                     E (Thermal)             CV                S
                      KCal/Mol        Cal/Mol-Kelvin    Cal/Mol-Kelvin
 Total                   34.856             12.941             66.355
 Electronic               0.000              0.000              1.377
 Translational            0.889              2.981             36.416
 Rotational               0.889              2.981             21.044
 Vibrational             33.079              6.979              7.518
 Vibration     1          0.596              1.977              4.733
 Vibration     2          0.726              1.579              1.175
 Vibration     3          0.736              1.551              1.114
                       Q            Log10(Q)             Ln(Q)
 Total Bot       0.329160D-11        -11.482592        -26.439646
 Total V=0       0.926478D+12         11.966835         27.554656
 Vib (Bot)       0.248857D-22        -22.604050        -52.047749
 Vib (Bot)    1  0.396087D+01          0.597790          1.376463
 Vib (Bot)    2  0.530646D+00         -0.275195         -0.633660
 Vib (Bot)    3  0.505976D+00         -0.295870         -0.681267
 Vib (V=0)       0.700450D+01          0.845377          1.946553
 Vib (V=0)    1  0.449230D+01          0.652469          1.502365
 Vib (V=0)    2  0.122910D+01          0.089587          0.206281
 Vib (V=0)    3  0.121134D+01          0.083268          0.191731
 Electronic      0.200000D+01          0.301030          0.693147
 Translational   0.746273D+07          6.872898         15.825432
 Rotational      0.886196D+04          3.947530          9.089524
 ***** Axes restored to original set *****
 -------------------------------------------------------------------
 Center     Atomic                   Forces (Hartrees/Bohr)
 Number     Number              X              Y              Z
 -------------------------------------------------------------------
      1        6          -0.000000726   -0.000016375    0.000003793
      2        1           0.000002533    0.000004226    0.000000994
      3        1           0.000002352    0.000005697   -0.000002229
      4        1          -0.000004579    0.000002448   -0.000000399
      5        1          -0.000003626    0.000009350   -0.000000439
      6        8           0.000006997   -0.000008747   -0.000004100
      7        1          -0.000002951    0.000003400    0.000002380
 -------------------------------------------------------------------
 Cartesian Forces:  Max     0.000016375 RMS     0.000005552

 GradGradGradGradGradGradGradGradGradGradGradGradGradGradGradGradGradGrad
 Berny optimization.
 Internal  Forces:  Max     0.000008819 RMS     0.000004007
 Search for a saddle point.
 Step number   1 out of a maximum of    2
 All quantities printed in internal units (Hartrees-Bohrs-Radians)
 Swaping is turned off.
 Second derivative matrix not updated -- analytic derivatives used.
 The second derivative matrix:
                          R1        R2        R3        R4        R5
           R1           0.35330
           R2           0.00066   0.35220
           R3           0.00077   0.00066   0.35331
           R4           0.00164   0.00195   0.00164   0.15394
           R5          -0.00001  -0.00039  -0.00001   0.09170   0.02609
           R6           0.00006  -0.00017   0.00006   0.00330  -0.00603
           A1           0.00669   0.00646  -0.00370  -0.01194   0.00521
           A2           0.00647  -0.00359   0.00647  -0.01177   0.00440
           A3           0.00158  -0.00659  -0.00635   0.01424  -0.00431
           A4          -0.00370   0.00646   0.00669  -0.01194   0.00521
           A5          -0.00652   0.00268  -0.00652   0.01329  -0.00879
           A6          -0.00635  -0.00659   0.00158   0.01424  -0.00432
           A7           0.00036  -0.00139   0.00036  -0.00121   0.00776
           A8           0.00153  -0.00328   0.00153  -0.00133  -0.00339
           A9          -0.00164   0.00000   0.00164   0.00000   0.00000
           D1           0.00007  -0.00492   0.00477   0.00046   0.00105
           D2           0.00526   0.00000  -0.00526   0.00000   0.00000
           D3          -0.00477   0.00492  -0.00007  -0.00046  -0.00105
                          R6        A1        A2        A3        A4
           R6           0.50368
           A1           0.00095   0.05797
           A2           0.00081  -0.00458   0.05548
           A3          -0.00055  -0.02701  -0.02569   0.07803
           A4           0.00095  -0.00438  -0.00458  -0.00450   0.05797
           A5          -0.00210  -0.02520  -0.00431  -0.00608  -0.02520
           A6          -0.00055  -0.00450  -0.02569  -0.00525  -0.02701
           A7           0.00341  -0.00067   0.00024  -0.00095  -0.00067
           A8           0.00189  -0.00136   0.00736  -0.00084  -0.00136
           A9           0.00000  -0.00323   0.00000   0.00024   0.00323
           D1          -0.00001  -0.02031   0.01883   0.00135  -0.00026
           D2           0.00000   0.01923   0.00000   0.00604  -0.01923
           D3           0.00001   0.00026  -0.01883  -0.00469   0.02031
                          A5        A6        A7        A8        A9
           A5           0.07693
           A6          -0.00608   0.07803
           A7           0.00323  -0.00094   0.08290
           A8          -0.00404  -0.00084  -0.00447   0.02216
           A9           0.00000  -0.00024   0.00000  -0.00001   0.00462
           D1          -0.00495   0.00469   0.00021   0.00112   0.00070
           D2           0.00000  -0.00604   0.00000   0.00000  -0.00230
           D3           0.00495  -0.00135  -0.00021  -0.00112   0.00070
                          D1        D2        D3
           D1           0.01639
           D2          -0.00799   0.01638
           D3          -0.00829  -0.00799   0.01639
     Eigenvalues ---   -0.02772   0.00008   0.00436   0.02126   0.06949
     Eigenvalues ---    0.07100   0.08338   0.09813   0.09991   0.11316
     Eigenvalues ---    0.20736   0.35277   0.35343   0.35534   0.50381
     Eigenvalues --- 1000.000001000.000001000.00000
 Eigenvectors required to have negative eigenvalues:
                          R5        R4        A5        A4        A1
   1                    0.85877  -0.46664   0.10616  -0.07144  -0.07143
                          A6        A3        A2        A7        A8
   1                    0.07114   0.07108  -0.06865  -0.06597   0.05755
 Angle between quadratic step and forces=  91.73 degrees.
 Linear search not attempted -- option 19 set.
 Iteration  1 RMS(Cart)=  0.00022860 RMS(Int)=  0.00000008
 Iteration  2 RMS(Cart)=  0.00000007 RMS(Int)=  0.00000000
 Variable       Old X    -DE/DX   Delta X   Delta X   Delta X     New X
                                 (Linear)    (Quad)   (Total)
    R1        2.05980   0.00000   0.00000   0.00001   0.00001   2.05981
    R2        2.06116   0.00001   0.00000   0.00002   0.00002   2.06118
    R3        2.05980   0.00000   0.00000   0.00001   0.00001   2.05981
    R4        2.29826   0.00000   0.00000   0.00016   0.00016   2.29842
    R5        2.50323   0.00001   0.00000  -0.00031  -0.00031   2.50292
    R6        1.84292   0.00000   0.00000   0.00000   0.00000   1.84292
    A1        1.96821  -0.00001   0.00000  -0.00003  -0.00003   1.96818
    A2        1.97438   0.00000   0.00000   0.00003   0.00003   1.97441
    A3        1.86630   0.00000   0.00000  -0.00004  -0.00004   1.86627
    A4        1.96818   0.00000   0.00000   0.00001   0.00001   1.96819
    A5        1.80621   0.00000   0.00000  -0.00002  -0.00002   1.80619
    A6        1.86616   0.00000   0.00000   0.00004   0.00004   1.86621
    A7        1.75117  -0.00001   0.00000  -0.00007  -0.00007   1.75110
    A8        3.23801   0.00000   0.00000   0.00012   0.00012   3.23813
    A9        3.14149   0.00000   0.00000  -0.00011  -0.00011   3.14138
    D1        1.04551   0.00000   0.00000   0.00072   0.00072   1.04623
    D2        3.14002   0.00000   0.00000   0.00066   0.00066   3.14068
    D3       -1.04873   0.00000   0.00000   0.00071   0.00071  -1.04802
         Item               Value     Threshold  Converged?
 Maximum Force            0.000009     0.000450     YES
 RMS     Force            0.000004     0.000300     YES
 Maximum Displacement     0.000600     0.001800     YES
 RMS     Displacement     0.000229     0.001200     YES
 Predicted change in Energy= 3.287088D-10
 Optimization completed.
    -- Stationary point found.
                           ----------------------------
                           !   Optimized Parameters   !
                           ! (Angstroms and Degrees)  !
 --------------------------                            --------------------------
 ! Name  Definition              Value          Derivative Info.                !
 --------------------------------------------------------------------------------
 ! R1    R(1,2)                  1.09           -DE/DX =    0.0                 !
 ! R2    R(1,3)                  1.0907         -DE/DX =    0.0                 !
 ! R3    R(1,4)                  1.09           -DE/DX =    0.0                 !
 ! R4    R(1,5)                  1.2162         -DE/DX =    0.0                 !
 ! R5    R(5,6)                  1.3247         -DE/DX =    0.0                 !
 ! R6    R(6,7)                  0.9752         -DE/DX =    0.0                 !
 ! A1    A(2,1,3)              112.7699         -DE/DX =    0.0                 !
 ! A2    A(2,1,4)              113.1236         -DE/DX =    0.0                 !
 ! A3    A(2,1,5)              106.9313         -DE/DX =    0.0                 !
 ! A4    A(3,1,4)              112.7684         -DE/DX =    0.0                 !
 ! A5    A(3,1,5)              103.4882         -DE/DX =    0.0                 !
 ! A6    A(4,1,5)              106.9233         -DE/DX =    0.0                 !
 ! A7    A(5,6,7)              100.3346         -DE/DX =    0.0                 !
 ! A8    L(1,5,6,3,-1)         185.5242         -DE/DX =    0.0                 !
 ! A9    L(1,5,6,3,-2)         179.994          -DE/DX =    0.0                 !
 ! D1    D(2,1,6,7)             59.9033         -DE/DX =    0.0                 !
 ! D2    D(3,1,6,7)            179.9098         -DE/DX =    0.0                 !
 ! D3    D(4,1,6,7)            -60.0879         -DE/DX =    0.0                 !
 --------------------------------------------------------------------------------
 GradGradGradGradGradGradGradGradGradGradGradGradGradGradGradGradGradGrad

 1|1|UNPC-DESKTOP-319GPER|Freq|UB3LYP|6-31+G(d,p)|C1H5O1(2)|SAGAD|05-Oc
 t-2020|0||#N Geom=AllCheck Guess=TCheck SCRF=Check GenChk UB3LYP/6-31+
 G(d,p) Freq||Estado de transicion B3LYp||0,2|C,0.7306645,1.7755536285,
 -0.8642204643|H,1.1237290197,2.2180632492,0.0510846433|H,1.1158243794,
 2.2558859766,-1.7645542249|H,-0.3557774784,1.6875820361,-0.8648913346|
 H,1.1773176739,0.6463836452,-0.9319067898|O,1.6040625057,-0.607112956,
 -0.8953029416|H,1.1968252447,-0.9062809494,-0.0611959426||Version=IA32
 W-G09RevA.02|State=2-A|HF=-116.2614343|S2=0.75677|S2-1=0.|S2A=0.750021
 |RMSD=1.058e-009|RMSF=5.552e-006|ZeroPoint=0.0509807|Thermal=0.0555473
 |Dipole=-0.4965897,0.4501305,0.5434668|DipoleDeriv=0.0930268,-0.255622
 4,0.0031354,-0.2405636,0.6812888,-0.0040698,-0.0055935,0.0203188,0.000
 7138,0.0410429,0.032067,-0.0439789,0.009675,-0.0655281,-0.0589174,-0.0
 533783,-0.0349606,-0.036347,0.043271,0.0369945,0.0386145,0.010584,-0.0
 600286,0.0642247,0.0538879,0.0215884,-0.0191314,-0.0906299,0.0075689,-
 0.0002378,0.0410503,-0.046148,0.0053774,0.0027715,-0.0007541,0.0759832
 ,0.0435783,0.3360486,0.0028026,0.3416101,-0.8243431,0.0216591,-0.00042
 44,0.0306562,0.1485942,-0.4073409,-0.1786965,-0.1062384,-0.1309336,-0.
 056684,-0.066831,-0.1340075,0.0106211,-0.325841,0.2770518,0.0216399,0.
 1059027,-0.0314222,0.3714432,0.038557,0.1367443,-0.0474698,0.1560282|P
 olar=21.9231513,-7.1002669,40.7560782,0.0142219,-0.9095243,19.8917061|
 PG=C01 [X(C1H5O1)]|NImag=1||0.53533849,0.09390346,0.31054603,0.0016976
 1,-0.00137226,0.56813068,-0.08337074,-0.04688456,-0.08286166,0.0832648
 1,-0.05071471,-0.08213748,-0.10235325,0.04948581,0.08588312,-0.0848531
 2,-0.09595794,-0.24854227,0.09304315,0.10599321,0.26265449,-0.08111103
 ,-0.04958800,0.07870790,0.00531341,0.00567112,-0.00951298,0.08085336,-
 0.05368796,-0.08941493,0.10944717,0.00536661,0.00809395,-0.01215403,0.
 05234610,0.09470251,0.08107895,0.10282718,-0.24068279,0.00937092,0.012
 89995,-0.01629485,-0.08891769,-0.11358184,0.25397915,-0.33022882,-0.02
 890861,-0.00016462,-0.00656743,0.00060209,0.00195794,-0.00661176,0.000
 79788,-0.00198794,0.35090644,-0.02119414,-0.03336915,0.00036651,-0.013
 25118,0.00090184,0.00099015,-0.01432746,0.00082007,-0.00090510,0.02766
 996,0.03583037,-0.00042089,0.00024344,-0.05045889,-0.02597513,-0.00044
 840,0.00296858,0.02547765,0.00021019,0.00290563,0.00016530,-0.00022492
 ,0.04507515,-0.02928243,-0.00039080,0.00010486,0.00073207,-0.00404337,
 -0.00137960,0.00075763,-0.00318141,0.00165413,-0.00849607,0.02159264,0
 .00097483,0.03496425,-0.00580471,-0.01282521,-0.00019675,0.00718384,-0
 .01605043,0.00167826,0.00864714,-0.01955926,-0.00226800,-0.00013252,-0
 .00830371,0.00003886,0.01325243,0.00104775,0.00324607,-0.00895555,-0.0
 2943012,0.00568005,-0.01556103,-0.00176639,-0.00519678,0.01683969,-0.0
 0071566,-0.00000631,0.00032167,-0.00029242,-0.00650266,-0.00135773,0.0
 4703400,-0.01257682,0.03441313,0.00445327,0.00049392,-0.00050785,0.000
 79532,0.00157139,-0.00230148,-0.00150685,0.00136786,-0.00130704,0.0000
 5960,-0.00022597,-0.02962012,0.00593712,0.10247469,0.03837328,-0.09154
 628,-0.00753011,-0.00149631,0.00339129,-0.00041833,-0.00315455,0.00547
 285,0.00181587,-0.00008816,0.00350316,-0.00000529,-0.02103142,0.058918
 01,-0.00432874,0.04841735,0.08468258,0.00216211,-0.00112778,-0.0003341
 3,0.00051463,0.00036845,0.00079310,-0.00101790,0.00044484,0.00119683,0
 .00020758,-0.00042438,-0.00018740,0.00094156,0.00960783,-0.01429349,-0
 .18825364,-0.12555760,0.38189370,0.00123136,-0.00254462,-0.00193736,0.
 00013396,-0.00049310,-0.00005072,-0.00077300,0.00066026,0.00030848,-0.
 00037021,0.00081723,-0.00028137,0.00155053,0.00647394,-0.00315748,-0.0
 9310507,-0.06102018,0.18544567,0.09133245,-0.00087522,-0.00125298,0.00
 163868,-0.00040421,-0.00008230,-0.00013131,0.00040565,-0.00011519,-0.0
 0078806,0.00005936,0.00061742,0.00018613,-0.00619807,-0.00322715,0.013
 04170,-0.04909400,-0.06442163,0.11668863,0.05610648,0.06848182,-0.0029
 1074,0.00434291,0.00131751,0.00022804,-0.00089893,0.00018734,0.0004598
 0,-0.00120601,-0.00038831,-0.00017194,-0.00012393,-0.00001064,0.004206
 88,-0.00750247,-0.00053591,0.17851518,0.13602420,-0.36906860,-0.180327
 22,-0.13063577,0.36849860||0.00000073,0.00001637,-0.00000379,-0.000002
 53,-0.00000423,-0.00000099,-0.00000235,-0.00000570,0.00000223,0.000004
 58,-0.00000245,0.00000040,0.00000363,-0.00000935,0.00000044,-0.0000070
 0,0.00000875,0.00000410,0.00000295,-0.00000340,-0.00000238|||@


 TOM, TOM, THE BURGLAR'S SON
 STOLE A MACHINE AND AWAY HE RUN
 THE JOB WAS NEAT, BUT TOM GOT BEAT
 BY THE TIME HE GOT HOME IT WAS OBSOLETE.
 Job cpu time:  0 days  0 hours  0 minutes 16.0 seconds.
 File lengths (MBytes):  RWF=     10 Int=      0 D2E=      0 Chk=      1 Scr=      1
 Normal termination of Gaussian 09 at Mon Oct 05 12:32:37 2020.
