 Entering Link 1 = C:\G09W\l1.exe PID=     10044.
  
 Copyright (c) 1988,1990,1992,1993,1995,1998,2003,2009, Gaussian, Inc.
                  All Rights Reserved.
  
 This is part of the Gaussian(R) 09 program.  It is based on
 the Gaussian(R) 03 system (copyright 2003, Gaussian, Inc.),
 the Gaussian(R) 98 system (copyright 1998, Gaussian, Inc.),
 the Gaussian(R) 94 system (copyright 1995, Gaussian, Inc.),
 the Gaussian 92(TM) system (copyright 1992, Gaussian, Inc.),
 the Gaussian 90(TM) system (copyright 1990, Gaussian, Inc.),
 the Gaussian 88(TM) system (copyright 1988, Gaussian, Inc.),
 the Gaussian 86(TM) system (copyright 1986, Carnegie Mellon
 University), and the Gaussian 82(TM) system (copyright 1983,
 Carnegie Mellon University). Gaussian is a federally registered
 trademark of Gaussian, Inc.
  
 This software contains proprietary and confidential information,
 including trade secrets, belonging to Gaussian, Inc.
  
 This software is provided under written license and may be
 used, copied, transmitted, or stored only in accord with that
 written license.
  
 The following legend is applicable only to US Government
 contracts under FAR:
  
                    RESTRICTED RIGHTS LEGEND
  
 Use, reproduction and disclosure by the US Government is
 subject to restrictions as set forth in subparagraphs (a)
 and (c) of the Commercial Computer Software - Restricted
 Rights clause in FAR 52.227-19.
  
 Gaussian, Inc.
 340 Quinnipiac St., Bldg. 40, Wallingford CT 06492
  
  
 ---------------------------------------------------------------
 Warning -- This program may not be used in any manner that
 competes with the business of Gaussian, Inc. or will provide
 assistance to any competitor of Gaussian, Inc.  The licensee
 of this program is prohibited from giving any competitor of
 Gaussian, Inc. access to this program.  By using this program,
 the user acknowledges that Gaussian, Inc. is engaged in the
 business of creating and licensing software in the field of
 computational chemistry and represents and warrants to the
 licensee that it is not a competitor of Gaussian, Inc. and that
 it will not use this program in any manner prohibited above.
 ---------------------------------------------------------------
  

 Cite this work as:
 Gaussian 09, Revision A.02,
 M. J. Frisch, G. W. Trucks, H. B. Schlegel, G. E. Scuseria, 
 M. A. Robb, J. R. Cheeseman, G. Scalmani, V. Barone, B. Mennucci, 
 G. A. Petersson, H. Nakatsuji, M. Caricato, X. Li, H. P. Hratchian, 
 A. F. Izmaylov, J. Bloino, G. Zheng, J. L. Sonnenberg, M. Hada, 
 M. Ehara, K. Toyota, R. Fukuda, J. Hasegawa, M. Ishida, T. Nakajima, 
 Y. Honda, O. Kitao, H. Nakai, T. Vreven, J. A. Montgomery, Jr., 
 J. E. Peralta, F. Ogliaro, M. Bearpark, J. J. Heyd, E. Brothers, 
 K. N. Kudin, V. N. Staroverov, R. Kobayashi, J. Normand, 
 K. Raghavachari, A. Rendell, J. C. Burant, S. S. Iyengar, J. Tomasi, 
 M. Cossi, N. Rega, J. M. Millam, M. Klene, J. E. Knox, J. B. Cross, 
 V. Bakken, C. Adamo, J. Jaramillo, R. Gomperts, R. E. Stratmann, 
 O. Yazyev, A. J. Austin, R. Cammi, C. Pomelli, J. W. Ochterski, 
 R. L. Martin, K. Morokuma, V. G. Zakrzewski, G. A. Voth, 
 P. Salvador, J. J. Dannenberg, S. Dapprich, A. D. Daniels, 
 O. Farkas, J. B. Foresman, J. V. Ortiz, J. Cioslowski, 
 and D. J. Fox, Gaussian, Inc., Wallingford CT, 2009.
 
 ******************************************
 Gaussian 09:  IA32W-G09RevA.02 11-Jun-2009
                05-Oct-2020 
 ******************************************
 %chk=C:\Users\sagad\Documents\rayGit\FQ\quimicaComputacional\class4Metilo\estado
 DeTransicion\metiloTsM062X.chk
 %nprocshared=4
 Will use up to    4 processors via shared memory.
 %mem=1500MB
 ------------------------------------------------
 # opt=(calcfc,ts,noeigen) freq M062X/6-31+g(d,p)
 ------------------------------------------------
 1/5=1,10=4,11=1,14=-1,18=20,26=3,38=1/1,3;
 2/9=110,12=2,17=6,18=5,40=1/2;
 3/5=1,6=6,7=111,11=2,16=1,25=1,30=1,71=2,74=-55/1,2,3;
 4//1;
 5/5=2,38=5/2;
 8/6=4,10=90,11=11/1;
 11/6=1,8=1,9=11,15=111,16=1/1,2,10;
 10/6=1,7=6,13=1/2;
 6/7=2,8=2,9=2,10=2,28=1/1;
 7/10=1,18=20,25=1/1,2,3,16;
 1/5=1,10=4,11=1,14=-1,18=20/3(2);
 2/9=110/2;
 99//99;
 2/9=110/2;
 3/5=1,6=6,7=111,11=2,16=1,25=1,30=1,71=1,74=-55/1,2,3;
 4/5=5,16=3/1;
 5/5=2,38=5/2;
 7//1,2,3,16;
 1/5=1,11=1,14=-1,18=20/3(-5);
 2/9=110/2;
 6/7=2,8=2,9=2,10=2,19=2,28=1/1;
 99/9=1/99;
 -------------------------
 Estado de transcion M062X
 -------------------------
 Symbolic Z-matrix:
 Charge =  0 Multiplicity = 2
 C                     0.74301   1.76559  -0.87365 
 H                     1.09968   2.26999   0. 
 H                     1.09968   2.26999  -1.7473 
 H                    -0.32699   1.76561  -0.87365 
 H                     1.14299   0.63422  -0.87365 
 O                     1.57631  -0.59144  -0.87365 
 H                     1.25797  -1.04388  -0.08908 
 

 GradGradGradGradGradGradGradGradGradGradGradGradGradGradGradGradGradGrad
 Berny optimization.
 Initialization pass.
                           ----------------------------
                           !    Initial Parameters    !
                           ! (Angstroms and Degrees)  !
 --------------------------                            --------------------------
 ! Name  Definition              Value          Derivative Info.                !
 --------------------------------------------------------------------------------
 ! R1    R(1,2)                  1.07           calculate D2E/DX2 analytically  !
 ! R2    R(1,3)                  1.07           calculate D2E/DX2 analytically  !
 ! R3    R(1,4)                  1.07           calculate D2E/DX2 analytically  !
 ! R4    R(1,5)                  1.2            calculate D2E/DX2 analytically  !
 ! R5    R(5,6)                  1.3            calculate D2E/DX2 analytically  !
 ! R6    R(6,7)                  0.96           calculate D2E/DX2 analytically  !
 ! A1    A(2,1,3)              109.4713         calculate D2E/DX2 analytically  !
 ! A2    A(2,1,4)              109.4712         calculate D2E/DX2 analytically  !
 ! A3    A(2,1,5)              109.4712         calculate D2E/DX2 analytically  !
 ! A4    A(3,1,4)              109.4712         calculate D2E/DX2 analytically  !
 ! A5    A(3,1,5)              109.4712         calculate D2E/DX2 analytically  !
 ! A6    A(4,1,5)              109.4712         calculate D2E/DX2 analytically  !
 ! A7    A(5,6,7)              109.5            calculate D2E/DX2 analytically  !
 ! A8    L(1,5,6,3,-1)         180.0            calculate D2E/DX2 analytically  !
 ! A9    L(1,5,6,3,-2)         180.0            calculate D2E/DX2 analytically  !
 ! D1    D(2,1,6,7)             59.8889         calculate D2E/DX2 analytically  !
 ! D2    D(3,1,6,7)            179.8889         calculate D2E/DX2 analytically  !
 ! D3    D(4,1,6,7)            -60.1111         calculate D2E/DX2 analytically  !
 --------------------------------------------------------------------------------
 Trust Radius=3.00D-01 FncErr=1.00D-07 GrdErr=1.00D-06
 Number of steps in this run=  28 maximum allowed number of steps= 100.
 Search for a saddle point of order  1.
 GradGradGradGradGradGradGradGradGradGradGradGradGradGradGradGradGradGrad

                          Input orientation:                          
 ---------------------------------------------------------------------
 Center     Atomic      Atomic             Coordinates (Angstroms)
 Number     Number       Type             X           Y           Z
 ---------------------------------------------------------------------
      1          6           0        0.743007    1.765592   -0.873652
      2          1           0        1.099680    2.269990    0.000000
      3          1           0        1.099680    2.269990   -1.747303
      4          1           0       -0.326993    1.765605   -0.873652
      5          1           0        1.142993    0.634217   -0.873652
      6          8           0        1.576312   -0.591441   -0.873652
      7          1           0        1.257967   -1.043880   -0.089078
 ---------------------------------------------------------------------
                    Distance matrix (angstroms):
                    1          2          3          4          5
     1  C    0.000000
     2  H    1.070000   0.000000
     3  H    1.070000   1.747303   0.000000
     4  H    1.070000   1.747303   1.747303   0.000000
     5  H    1.200000   1.854966   1.854966   1.854966   0.000000
     6  O    2.500000   3.029560   3.029560   3.029560   1.300000
     7  H    2.962072   3.318844   3.708976   3.319768   1.856012
                    6          7
     6  O    0.000000
     7  H    0.960000   0.000000
 Stoichiometry    CH5O(2)
 Framework group  C1[X(CH5O)]
 Deg. of freedom    15
 Full point group                 C1      NOp   1
 Largest Abelian subgroup         C1      NOp   1
 Largest concise Abelian subgroup C1      NOp   1
                         Standard orientation:                         
 ---------------------------------------------------------------------
 Center     Atomic      Atomic             Coordinates (Angstroms)
 Number     Number       Type             X           Y           Z
 ---------------------------------------------------------------------
      1          6           0        1.208803   -0.011461    0.000000
      2          1           0        1.540310   -0.534383   -0.872671
      3          1           0        1.614344    0.978707   -0.001956
      4          1           0        1.540476   -0.530998    0.874628
      5          1           0        0.010237    0.047184    0.000000
      6          8           0       -1.288210    0.110717    0.000000
      7          1           0       -1.652507   -0.777477    0.000000
 ---------------------------------------------------------------------
 Rotational constants (GHZ):    131.6128919      9.1016047      8.9782435
 Standard basis: 6-31+G(d,p) (6D, 7F)
 There are    63 symmetry adapted basis functions of A   symmetry.
 Integral buffers will be    262144 words long.
 Raffenetti 2 integral format.
 Two-electron integral symmetry is turned on.
    63 basis functions,    99 primitive gaussians,    63 cartesian basis functions
    10 alpha electrons        9 beta electrons
       nuclear repulsion energy        37.1494648913 Hartrees.
 NAtoms=    7 NActive=    7 NUniq=    7 SFac= 7.50D-01 NAtFMM=   80 NAOKFM=F Big=F
 One-electron integrals computed using PRISM.
 NBasis=    63 RedAO= T  NBF=    63
 NBsUse=    63 1.00D-06 NBFU=    63
 Harris functional with IExCor= 1009 diagonalized for initial guess.
 ExpMin= 4.38D-02 ExpMax= 5.48D+03 ExpMxC= 8.25D+02 IAcc=2 IRadAn=         0 AccDes= 0.00D+00
 HarFok:  IExCor= 1009 AccDes= 0.00D+00 IRadAn=         0 IDoV= 1
 ScaDFX=  1.000000  1.000000  1.000000  1.000000
 FoFCou: FMM=F IPFlag=           0 FMFlag=      100000 FMFlg1=           0
         NFxFlg=           0 DoJE=T BraDBF=F KetDBF=T FulRan=T
         Omega=  0.000000  0.000000  1.000000  0.000000  0.000000 ICntrl=     500 IOpCl=  0
         NMat0=    1 NMatS0=    1 NMatT0=    0 NMatD0=    1 NMtDS0=    0 NMtDT0=    0
         I1Cent=           4 NGrid=           0.
 Petite list used in FoFCou.
 Initial guess orbital symmetries:
 Alpha Orbitals:
       Occupied  (A) (A) (A) (A) (A) (A) (A) (A) (A) (A)
       Virtual   (A) (A) (A) (A) (A) (A) (A) (A) (A) (A) (A) (A)
                 (A) (A) (A) (A) (A) (A) (A) (A) (A) (A) (A) (A)
                 (A) (A) (A) (A) (A) (A) (A) (A) (A) (A) (A) (A)
                 (A) (A) (A) (A) (A) (A) (A) (A) (A) (A) (A) (A)
                 (A) (A) (A) (A) (A)
 Beta  Orbitals:
       Occupied  (A) (A) (A) (A) (A) (A) (A) (A) (A)
       Virtual   (A) (A) (A) (A) (A) (A) (A) (A) (A) (A) (A) (A)
                 (A) (A) (A) (A) (A) (A) (A) (A) (A) (A) (A) (A)
                 (A) (A) (A) (A) (A) (A) (A) (A) (A) (A) (A) (A)
                 (A) (A) (A) (A) (A) (A) (A) (A) (A) (A) (A) (A)
                 (A) (A) (A) (A) (A) (A)
 The electronic state of the initial guess is 2-A.
 Initial guess <Sx>= 0.0000 <Sy>= 0.0000 <Sz>= 0.5000 <S**2>= 0.7500 S= 0.5000
 Requested convergence on RMS density matrix=1.00D-08 within 128 cycles.
 Requested convergence on MAX density matrix=1.00D-06.
 Requested convergence on             energy=1.00D-06.
 No special actions if energy rises.
 Keep R1 and R2 ints in memory in canonical form, NReq=5032877.
 SCF Done:  E(UM062X) =  -116.176530115     A.U. after   13 cycles
             Convg  =    0.9221D-08             -V/T =  2.0076
 <Sx>= 0.0000 <Sy>= 0.0000 <Sz>= 0.5000 <S**2>= 0.7587 S= 0.5043
 <L.S>= 0.000000000000E+00
 Annihilation of the first spin contaminant:
 S**2 before annihilation     0.7587,   after     0.7500
 Range of M.O.s used for correlation:     1    63
 NBasis=    63 NAE=    10 NBE=     9 NFC=     0 NFV=     0
 NROrb=     63 NOA=    10 NOB=     9 NVA=    53 NVB=    54
 Symmetrizing basis deriv contribution to polar:
 IMax=3 JMax=2 DiffMx= 0.00D+00
 G2DrvN: will do     8 centers at a time, making    1 passes doing MaxLOS=2.
 Calling FoFCou, ICntrl=  3107 FMM=F I1Cent=   0 AccDes= 0.00D+00.
 FoFDir/FoFCou used for L=0 through L=2.
 End of G2Drv Frequency-dependent properties file   721 does not exist.
 End of G2Drv Frequency-dependent properties file   722 does not exist.
          IDoAtm=1111111
          Differentiating once with respect to nuclear coordinates.
          Keep R1 and R2 ints in memory in canonical form, NReq=4887787.
          There are    24 degrees of freedom in the 1st order CPHF.  IDoFFX=5.
     18 vectors produced by pass  0 Test12= 4.23D-11 4.17D-07 XBig12= 2.40D-01 3.65D-01.
 AX will form    18 AO Fock derivatives at one time.
     18 vectors produced by pass  1 Test12= 4.23D-11 4.17D-07 XBig12= 7.71D-03 2.72D-02.
     18 vectors produced by pass  2 Test12= 4.23D-11 4.17D-07 XBig12= 3.98D-04 4.35D-03.
     18 vectors produced by pass  3 Test12= 4.23D-11 4.17D-07 XBig12= 6.55D-06 5.12D-04.
     18 vectors produced by pass  4 Test12= 4.23D-11 4.17D-07 XBig12= 5.34D-08 4.78D-05.
      6 vectors produced by pass  5 Test12= 4.23D-11 4.17D-07 XBig12= 3.59D-10 4.32D-06.
 Inverted reduced A of dimension    96 with in-core refinement.
 End of Minotr Frequency-dependent properties file   721 does not exist.
 End of Minotr Frequency-dependent properties file   722 does not exist.

 **********************************************************************

            Population analysis using the SCF density.

 **********************************************************************

 Orbital symmetries:
 Alpha Orbitals:
       Occupied  (A) (A) (A) (A) (A) (A) (A) (A) (A) (A)
       Virtual   (A) (A) (A) (A) (A) (A) (A) (A) (A) (A) (A) (A)
                 (A) (A) (A) (A) (A) (A) (A) (A) (A) (A) (A) (A)
                 (A) (A) (A) (A) (A) (A) (A) (A) (A) (A) (A) (A)
                 (A) (A) (A) (A) (A) (A) (A) (A) (A) (A) (A) (A)
                 (A) (A) (A) (A) (A)
 Beta  Orbitals:
       Occupied  (A) (A) (A) (A) (A) (A) (A) (A) (A)
       Virtual   (A) (A) (A) (A) (A) (A) (A) (A) (A) (A) (A) (A)
                 (A) (A) (A) (A) (A) (A) (A) (A) (A) (A) (A) (A)
                 (A) (A) (A) (A) (A) (A) (A) (A) (A) (A) (A) (A)
                 (A) (A) (A) (A) (A) (A) (A) (A) (A) (A) (A) (A)
                 (A) (A) (A) (A) (A) (A)
 The electronic state is 2-A.
 Alpha  occ. eigenvalues --  -19.67932 -10.55121  -1.12695  -0.81410  -0.59638
 Alpha  occ. eigenvalues --   -0.50527  -0.48336  -0.48030  -0.40838  -0.36244
 Alpha virt. eigenvalues --    0.03143   0.05802   0.06836   0.06871   0.13911
 Alpha virt. eigenvalues --    0.18783   0.19624   0.23221   0.24216   0.25277
 Alpha virt. eigenvalues --    0.29719   0.31588   0.39070   0.65839   0.65896
 Alpha virt. eigenvalues --    0.69202   0.97235   0.97683   1.01608   1.04203
 Alpha virt. eigenvalues --    1.12325   1.18141   1.20063   1.21705   1.32940
 Alpha virt. eigenvalues --    1.39564   1.41442   1.56117   1.60702   1.67985
 Alpha virt. eigenvalues --    1.74774   1.83213   2.08293   2.11142   2.14818
 Alpha virt. eigenvalues --    2.15707   2.19801   2.42994   2.49253   2.53769
 Alpha virt. eigenvalues --    2.65144   2.68187   2.69478   2.78969   2.91770
 Alpha virt. eigenvalues --    2.97540   3.23842   3.39940   3.43394   3.43761
 Alpha virt. eigenvalues --    3.70898   4.09557   4.53103
  Beta  occ. eigenvalues --  -19.66630 -10.54690  -1.07864  -0.79439  -0.55324
  Beta  occ. eigenvalues --   -0.47609  -0.47543  -0.43542  -0.38117
  Beta virt. eigenvalues --   -0.10803   0.03241   0.06086   0.07085   0.07149
  Beta virt. eigenvalues --    0.13744   0.19022   0.20366   0.23551   0.24721
  Beta virt. eigenvalues --    0.25660   0.30266   0.32057   0.41890   0.66502
  Beta virt. eigenvalues --    0.66590   0.72398   0.98095   0.98439   1.01778
  Beta virt. eigenvalues --    1.04606   1.13014   1.18964   1.21457   1.25941
  Beta virt. eigenvalues --    1.33218   1.40767   1.42755   1.58249   1.61811
  Beta virt. eigenvalues --    1.70166   1.76955   1.86551   2.08616   2.10837
  Beta virt. eigenvalues --    2.15734   2.16424   2.20125   2.44234   2.49413
  Beta virt. eigenvalues --    2.54091   2.65224   2.68549   2.70709   2.79795
  Beta virt. eigenvalues --    2.93007   2.98520   3.25366   3.40833   3.44936
  Beta virt. eigenvalues --    3.45261   3.70819   4.12466   4.55850
          Condensed to atoms (all electrons):
              1          2          3          4          5          6
     1  C    5.210615   0.387367   0.390582   0.387374   0.320489  -0.088667
     2  H    0.387367   0.508744  -0.025246  -0.027243  -0.019130   0.000983
     3  H    0.390582  -0.025246   0.487748  -0.025248  -0.014594   0.001588
     4  H    0.387374  -0.027243  -0.025248   0.508703  -0.019123   0.000980
     5  H    0.320489  -0.019130  -0.014594  -0.019123   0.472857  -0.004343
     6  O   -0.088667   0.000983   0.001588   0.000980  -0.004343   8.384859
     7  H    0.008675  -0.000327   0.000125  -0.000326  -0.004112   0.247224
              7
     1  C    0.008675
     2  H   -0.000327
     3  H    0.000125
     4  H   -0.000326
     5  H   -0.004112
     6  O    0.247224
     7  H    0.392414
 Mulliken atomic charges:
              1
     1  C   -0.616436
     2  H    0.174851
     3  H    0.185044
     4  H    0.174882
     5  H    0.267956
     6  O   -0.542624
     7  H    0.356327
 Sum of Mulliken atomic charges =   0.00000
 Mulliken charges with hydrogens summed into heavy atoms:
              1
     1  C    0.186298
     6  O   -0.186298
 Sum of Mulliken charges with hydrogens summed into heavy atoms =   0.00000
          Atomic-Atomic Spin Densities.
              1          2          3          4          5          6
     1  C    0.487066  -0.008639  -0.009820  -0.008642   0.087600  -0.105562
     2  H   -0.008639  -0.013410   0.002388   0.001781   0.001918   0.003460
     3  H   -0.009820   0.002388  -0.006717   0.002390  -0.001059   0.004078
     4  H   -0.008642   0.001781   0.002390  -0.013400   0.001913   0.003461
     5  H    0.087600   0.001918  -0.001059   0.001913  -0.082653  -0.066735
     6  O   -0.105562   0.003460   0.004078   0.003461  -0.066735   0.823114
     7  H    0.003315  -0.000044  -0.000060  -0.000044   0.002234  -0.000816
              7
     1  C    0.003315
     2  H   -0.000044
     3  H   -0.000060
     4  H   -0.000044
     5  H    0.002234
     6  O   -0.000816
     7  H   -0.020228
 Mulliken atomic spin densities:
              1
     1  C    0.445319
     2  H   -0.012547
     3  H   -0.008801
     4  H   -0.012542
     5  H   -0.056783
     6  O    0.660999
     7  H   -0.015645
 Sum of Mulliken atomic spin densities =   1.00000
 APT atomic charges:
              1
     1  C   -1.289434
     2  H    0.399446
     3  H    0.428486
     4  H    0.399511
     5  H    0.255364
     6  O   -0.775910
     7  H    0.582538
 Sum of APT charges=   0.00000
 APT Atomic charges with hydrogens summed into heavy atoms:
              1
     1  C    0.193373
     2  H    0.000000
     3  H    0.000000
     4  H    0.000000
     5  H    0.000000
     6  O   -0.193373
     7  H    0.000000
 Sum of APT charges=   0.00000
 Electronic spatial extent (au):  <R**2>=            159.0795
 Charge=              0.0000 electrons
 Dipole moment (field-independent basis, Debye):
    X=              0.9674    Y=             -1.6465    Z=              0.0000  Tot=              1.9096
 Quadrupole moment (field-independent basis, Debye-Ang):
   XX=            -13.1075   YY=            -13.2908   ZZ=            -15.2149
   XY=              3.0600   XZ=              0.0000   YZ=             -0.0001
 Traceless Quadrupole moment (field-independent basis, Debye-Ang):
   XX=              0.7635   YY=              0.5803   ZZ=             -1.3438
   XY=              3.0600   XZ=              0.0000   YZ=             -0.0001
 Octapole moment (field-independent basis, Debye-Ang**2):
  XXX=             -7.4694  YYY=             -0.9499  ZZZ=              0.0037  XYY=             -2.6787
  XXY=             -4.7946  XXZ=             -0.0001  XZZ=              0.0694  YZZ=             -0.9580
  YYZ=             -0.0037  XYZ=             -0.0004
 Hexadecapole moment (field-independent basis, Debye-Ang**3):
 XXXX=           -151.3292 YYYY=            -21.5429 ZZZZ=            -21.9429 XXXY=             10.0477
 XXXZ=             -0.0003 YYYX=              4.4070 YYYZ=              0.0002 ZZZX=              0.0065
 ZZZY=             -0.0003 XXYY=            -25.9223 XXZZ=            -30.6401 YYZZ=             -7.3630
 XXYZ=             -0.0011 YYXZ=             -0.0065 ZZXY=             -0.4453
 N-N= 3.714946489134D+01 E-N=-5.136712381343D+02  KE= 1.716340815521D+02
  Exact polarizability:   0.000   0.000   0.000   0.000   0.000   0.000
 Approx polarizability:  36.608   0.282  19.594   0.000   0.000  18.034
                          Isotropic Fermi Contact Couplings
        Atom                 a.u.       MegaHertz       Gauss      10(-4) cm-1
     1  C(13)              0.16793     188.78655      67.36373      62.97241
     2  H(1)              -0.00290     -12.96899      -4.62766      -4.32599
     3  H(1)              -0.00105      -4.71477      -1.68235      -1.57268
     4  H(1)              -0.00290     -12.95675      -4.62329      -4.32191
     5  H(1)              -0.01817     -81.20875     -28.97730     -27.08832
     6  O(17)              0.14447     -87.57936     -31.25049     -29.21333
     7  H(1)              -0.00986     -44.05169     -15.71874     -14.69406
 --------------------------------------------------------
       Center         ----  Spin Dipole Couplings  ----
                      3XX-RR        3YY-RR        3ZZ-RR
 --------------------------------------------------------
     1   Atom        0.459643     -0.229725     -0.229918
     2   Atom        0.002736     -0.015841      0.013105
     3   Atom        0.004202      0.028324     -0.032526
     4   Atom        0.002739     -0.016053      0.013314
     5   Atom        0.250028     -0.124453     -0.125576
     6   Atom        2.146229     -0.908772     -1.237457
     7   Atom       -0.007734      0.106275     -0.098541
 --------------------------------------------------------
                        XY            XZ            YZ
 --------------------------------------------------------
     1   Atom       -0.022591      0.000000      0.000000
     2   Atom       -0.009800     -0.014331      0.027440
     3   Atom        0.017971     -0.000038     -0.000120
     4   Atom       -0.009748      0.014370     -0.027327
     5   Atom       -0.003678      0.000000      0.000001
     6   Atom       -1.090935      0.000002     -0.000001
     7   Atom        0.056056      0.000000      0.000000
 --------------------------------------------------------


 ---------------------------------------------------------------------------------
              Anisotropic Spin Dipole Couplings in Principal Axis System
 ---------------------------------------------------------------------------------

       Atom             a.u.   MegaHertz   Gauss  10(-4) cm-1        Axes

              Baa    -0.2305   -30.926   -11.035   -10.316  0.0327  0.9995  0.0008
     1 C(13)  Bbb    -0.2299   -30.853   -11.009   -10.291  0.0000 -0.0008  1.0000
              Bcc     0.4604    61.779    22.044    20.607  0.9995 -0.0327  0.0000
 
              Baa    -0.0324   -17.299    -6.173    -5.770  0.0326  0.8605 -0.5084
     2 H(1)   Bbb    -0.0057    -3.052    -1.089    -1.018  0.8975  0.1986  0.3938
              Bcc     0.0381    20.351     7.262     6.789 -0.4398  0.4691  0.7658
 
              Baa    -0.0325   -17.354    -6.192    -5.789  0.0001  0.0020  1.0000
     3 H(1)   Bbb    -0.0054    -2.871    -1.024    -0.958  0.8824 -0.4705  0.0008
              Bcc     0.0379    20.225     7.217     6.746  0.4705  0.8824 -0.0018
 
              Baa    -0.0324   -17.300    -6.173    -5.771  0.0327  0.8625  0.5050
     4 H(1)   Bbb    -0.0057    -3.052    -1.089    -1.018  0.8975  0.1970 -0.3946
              Bcc     0.0381    20.352     7.262     6.789  0.4399 -0.4662  0.7676
 
              Baa    -0.1256   -67.001   -23.908   -22.349  0.0000 -0.0007  1.0000
     5 H(1)   Bbb    -0.1245   -66.421   -23.701   -22.156  0.0098  1.0000  0.0007
              Bcc     0.2501   133.423    47.608    44.505  1.0000 -0.0098  0.0000
 
              Baa    -1.2583    91.053    32.490    30.372  0.3051  0.9523  0.0000
     6 O(17)  Bbb    -1.2375    89.542    31.951    29.868  0.0000  0.0000  1.0000
              Bcc     2.4958  -180.594   -64.441   -60.240  0.9523 -0.3051  0.0000
 
              Baa    -0.0985   -52.577   -18.761   -17.538  0.0000  0.0000  1.0000
     7 H(1)   Bbb    -0.0307   -16.369    -5.841    -5.460  0.9255 -0.3788  0.0000
              Bcc     0.1292    68.946    24.601    22.998  0.3788  0.9255  0.0000
 

 ---------------------------------------------------------------------------------

 Calling FoFJK, ICntrl=    100147 FMM=F ISym2X=0 I1Cent= 0 IOpClX= 1 NMat=1 NMatS=1 NMatT=0.
 ***** Axes restored to original set *****
 -------------------------------------------------------------------
 Center     Atomic                   Forces (Hartrees/Bohr)
 Number     Number              X              Y              Z
 -------------------------------------------------------------------
      1        6          -0.004844656    0.006191640    0.004340831
      2        1           0.007920371    0.002017638    0.013812998
      3        1           0.008967363   -0.000536445   -0.014328984
      4        1          -0.014863719   -0.006044888   -0.000142090
      5        1           0.000094004   -0.000494036    0.000131778
      6        8           0.010851423   -0.001486043   -0.016937476
      7        1          -0.008124787    0.000352135    0.013122944
 -------------------------------------------------------------------
 Cartesian Forces:  Max     0.016937476 RMS     0.008527887

 GradGradGradGradGradGradGradGradGradGradGradGradGradGradGradGradGradGrad
 Berny optimization.
 Internal  Forces:  Max     0.014864605 RMS     0.008746687
 Search for a saddle point.
 Step number   1 out of a maximum of   28
 All quantities printed in internal units (Hartrees-Bohrs-Radians)
 Swaping is turned off.
 Second derivative matrix not updated -- analytic derivatives used.
 The second derivative matrix:
                          R1        R2        R3        R4        R5
           R1           0.39804
           R2           0.00078   0.39927
           R3           0.00078   0.00078   0.39801
           R4           0.00086   0.00004   0.00086   0.16961
           R5           0.00012   0.00015   0.00011   0.10813   0.01633
           R6          -0.00003  -0.00004  -0.00003   0.00548  -0.00882
           A1           0.00723   0.00722  -0.00352  -0.01209   0.00709
           A2           0.00758  -0.00351   0.00759  -0.01234   0.00686
           A3           0.00127  -0.00615  -0.00608   0.01357  -0.00626
           A4          -0.00352   0.00720   0.00724  -0.01209   0.00709
           A5          -0.00647   0.00140  -0.00646   0.00940  -0.00851
           A6          -0.00609  -0.00616   0.00122   0.01355  -0.00627
           A7           0.00016  -0.00128   0.00015   0.00247  -0.00883
           A8           0.00137  -0.00322   0.00139   0.00133  -0.00016
           A9          -0.00168   0.00000   0.00169   0.00000   0.00000
           D1           0.00030  -0.00541   0.00560   0.00054   0.00039
           D2           0.00593   0.00001  -0.00592   0.00000   0.00000
           D3          -0.00560   0.00540  -0.00029  -0.00054  -0.00039
                          R6        A1        A2        A3        A4
           R6           0.56937
           A1           0.00113   0.06031
           A2           0.00101  -0.00492   0.06162
           A3          -0.00067  -0.02595  -0.02615   0.07194
           A4           0.00112  -0.00434  -0.00492   0.00007   0.06031
           A5          -0.00193  -0.02518   0.00053  -0.01001  -0.02520
           A6          -0.00067   0.00008  -0.02615  -0.00990  -0.02593
           A7           0.00380   0.00037   0.00111  -0.00172   0.00038
           A8           0.00073  -0.00224   0.00951  -0.00019  -0.00225
           A9           0.00000  -0.00435   0.00000  -0.00079   0.00434
           D1           0.00009  -0.02121   0.02020   0.00100   0.00006
           D2           0.00000   0.02034   0.00000   0.00699  -0.02034
           D3          -0.00010  -0.00005  -0.02020  -0.00503   0.02120
                          A5        A6        A7        A8        A9
           A5           0.06987
           A6          -0.01001   0.07191
           A7           0.00156  -0.00171   0.07538
           A8          -0.00464  -0.00019  -0.00582   0.02018
           A9           0.00000   0.00080   0.00001  -0.00001   0.00357
           D1          -0.00507   0.00502   0.00056   0.00249   0.00098
           D2           0.00001  -0.00699   0.00000   0.00000  -0.00430
           D3           0.00507  -0.00099  -0.00056  -0.00250   0.00097
                          D1        D2        D3
           D1           0.01871
           D2          -0.00922   0.01933
           D3          -0.00892  -0.00921   0.01871
     Eigenvalues ---   -0.04622  -0.00001   0.00346   0.01821   0.06999
     Eigenvalues ---    0.07115   0.07708   0.10371   0.10372   0.10542
     Eigenvalues ---    0.22846   0.39809   0.39882   0.40099   0.56959
     Eigenvalues --- 1000.000001000.000001000.00000
 Eigenvectors required to have negative eigenvalues:
                          R5        R4        A5        A1        A4
   1                    0.86217  -0.46027   0.08042  -0.07955  -0.07955
                          A2        A3        A6        A7        A8
   1                   -0.07916   0.07892   0.07892   0.07538   0.03013
 RFO step:  Lambda0=2.423174439D-04 Lambda=-7.08165934D-03.
 Linear search not attempted -- option 19 set.
 Iteration  1 RMS(Cart)=  0.08113160 RMS(Int)=  0.00713963
 Iteration  2 RMS(Cart)=  0.00729592 RMS(Int)=  0.00087861
 Iteration  3 RMS(Cart)=  0.00003883 RMS(Int)=  0.00087818
 Iteration  4 RMS(Cart)=  0.00000001 RMS(Int)=  0.00087818
 Variable       Old X    -DE/DX   Delta X   Delta X   Delta X     New X
                                 (Linear)    (Quad)   (Total)
    R1        2.02201   0.01486   0.00000   0.03320   0.03320   2.05520
    R2        2.02201   0.01444   0.00000   0.03364   0.03364   2.05564
    R3        2.02201   0.01486   0.00000   0.03318   0.03318   2.05518
    R4        2.26767   0.00247   0.00000  -0.03118  -0.03118   2.23649
    R5        2.45664   0.00197   0.00000   0.10458   0.10458   2.56122
    R6        1.81414   0.01327   0.00000   0.02523   0.02523   1.83937
    A1        1.91063   0.00710   0.00000   0.04840   0.04680   1.95744
    A2        1.91063   0.00692   0.00000   0.05281   0.05117   1.96180
    A3        1.91063  -0.00519   0.00000  -0.03142  -0.03285   1.87778
    A4        1.91063   0.00711   0.00000   0.04844   0.04684   1.95747
    A5        1.91063  -0.01074   0.00000  -0.08671  -0.08812   1.82251
    A6        1.91063  -0.00520   0.00000  -0.03151  -0.03294   1.87769
    A7        1.91114  -0.01440   0.00000  -0.15759  -0.15759   1.75354
    A8        3.14159   0.00384   0.00000   0.08416   0.08415   3.22575
    A9        3.14159   0.00000   0.00000  -0.00025  -0.00025   3.14134
    D1        1.04526   0.00045   0.00000  -0.00032  -0.00034   1.04492
    D2        3.13965   0.00000   0.00000  -0.00002  -0.00002   3.13964
    D3       -1.04914  -0.00045   0.00000   0.00034   0.00036  -1.04878
         Item               Value     Threshold  Converged?
 Maximum Force            0.014865     0.000450     NO 
 RMS     Force            0.008747     0.000300     NO 
 Maximum Displacement     0.230294     0.001800     NO 
 RMS     Displacement     0.084105     0.001200     NO 
 Predicted change in Energy=-3.629690D-03
 GradGradGradGradGradGradGradGradGradGradGradGradGradGradGradGradGradGrad

                          Input orientation:                          
 ---------------------------------------------------------------------
 Center     Atomic      Atomic             Coordinates (Angstroms)
 Number     Number       Type             X           Y           Z
 ---------------------------------------------------------------------
      1          6           0        0.736527    1.767690   -0.864261
      2          1           0        1.127008    2.221011    0.043939
      3          1           0        1.113178    2.255260   -1.760765
      4          1           0       -0.348869    1.699315   -0.859816
      5          1           0        1.163932    0.665807   -0.926292
      6          8           0        1.600498   -0.616996   -0.898512
      7          1           0        1.200371   -0.922013   -0.065281
 ---------------------------------------------------------------------
                    Distance matrix (angstroms):
                    1          2          3          4          5
     1  C    0.000000
     2  H    1.087567   0.000000
     3  H    1.087800   1.805082   0.000000
     4  H    1.087557   1.807527   1.805095   0.000000
     5  H    1.183499   1.833404   1.795907   1.833337   0.000000
     6  O    2.536601   3.027654   3.038225   3.027676   1.355339
     7  H    2.843945   3.145777   3.602407   3.146870   1.806611
                    6          7
     6  O    0.000000
     7  H    0.973350   0.000000
 Stoichiometry    CH5O(2)
 Framework group  C1[X(CH5O)]
 Deg. of freedom    15
 Full point group                 C1      NOp   1
 Largest Abelian subgroup         C1      NOp   1
 Largest concise Abelian subgroup C1      NOp   1
                         Standard orientation:                         
 ---------------------------------------------------------------------
 Center     Atomic      Atomic             Coordinates (Angstroms)
 Number     Number       Type             X           Y           Z
 ---------------------------------------------------------------------
      1          6           0        1.223117   -0.010267    0.000005
      2          1           0        1.503200   -0.548200   -0.902760
      3          1           0        1.590382    1.013657   -0.002026
      4          1           0        1.503394   -0.544717    0.904764
      5          1           0        0.044697    0.099254   -0.000017
      6          8           0       -1.310593    0.110801    0.000001
      7          1           0       -1.495629   -0.844800   -0.000003
 ---------------------------------------------------------------------
 Rotational constants (GHZ):    121.3401528      8.9981563      8.8605491
 Standard basis: 6-31+G(d,p) (6D, 7F)
 There are    63 symmetry adapted basis functions of A   symmetry.
 Integral buffers will be    262144 words long.
 Raffenetti 2 integral format.
 Two-electron integral symmetry is turned on.
    63 basis functions,    99 primitive gaussians,    63 cartesian basis functions
    10 alpha electrons        9 beta electrons
       nuclear repulsion energy        36.7603660773 Hartrees.
 NAtoms=    7 NActive=    7 NUniq=    7 SFac= 7.50D-01 NAtFMM=   80 NAOKFM=F Big=F
 One-electron integrals computed using PRISM.
 NBasis=    63 RedAO= T  NBF=    63
 NBsUse=    63 1.00D-06 NBFU=    63
 Initial guess read from the read-write file.
 B after Tr=     0.000000    0.000000    0.000000
         Rot=    1.000000    0.000000    0.000000    0.000000 Ang=   0.00 deg.
 Initial guess orbital symmetries:
 Alpha Orbitals:
       Occupied  (A) (A) (A) (A) (A) (A) (A) (A) (A) (A)
       Virtual   (A) (A) (A) (A) (A) (A) (A) (A) (A) (A) (A) (A)
                 (A) (A) (A) (A) (A) (A) (A) (A) (A) (A) (A) (A)
                 (A) (A) (A) (A) (A) (A) (A) (A) (A) (A) (A) (A)
                 (A) (A) (A) (A) (A) (A) (A) (A) (A) (A) (A) (A)
                 (A) (A) (A) (A) (A)
 Beta  Orbitals:
       Occupied  (A) (A) (A) (A) (A) (A) (A) (A) (A)
       Virtual   (A) (A) (A) (A) (A) (A) (A) (A) (A) (A) (A) (A)
                 (A) (A) (A) (A) (A) (A) (A) (A) (A) (A) (A) (A)
                 (A) (A) (A) (A) (A) (A) (A) (A) (A) (A) (A) (A)
                 (A) (A) (A) (A) (A) (A) (A) (A) (A) (A) (A) (A)
                 (A) (A) (A) (A) (A) (A)
 Initial guess <Sx>= 0.0000 <Sy>= 0.0000 <Sz>= 0.5000 <S**2>= 0.7588 S= 0.5044
 Harris functional with IExCor= 1009 diagonalized for initial guess.
 ExpMin= 4.38D-02 ExpMax= 5.48D+03 ExpMxC= 8.25D+02 IAcc=2 IRadAn=         0 AccDes= 0.00D+00
 HarFok:  IExCor= 1009 AccDes= 0.00D+00 IRadAn=         0 IDoV= 1
 ScaDFX=  1.000000  1.000000  1.000000  1.000000
 FoFCou: FMM=F IPFlag=           0 FMFlag=      100000 FMFlg1=           0
         NFxFlg=           0 DoJE=T BraDBF=F KetDBF=T FulRan=T
         Omega=  0.000000  0.000000  1.000000  0.000000  0.000000 ICntrl=     500 IOpCl=  0
         NMat0=    1 NMatS0=    1 NMatT0=    0 NMatD0=    1 NMtDS0=    0 NMtDT0=    0
         I1Cent=           4 NGrid=           0.
 Petite list used in FoFCou.
 Requested convergence on RMS density matrix=1.00D-08 within 128 cycles.
 Requested convergence on MAX density matrix=1.00D-06.
 Requested convergence on             energy=1.00D-06.
 No special actions if energy rises.
 Keep R1 and R2 ints in memory in canonical form, NReq=5033315.
 SCF Done:  E(UM062X) =  -116.180255599     A.U. after   13 cycles
             Convg  =    0.4013D-08             -V/T =  2.0085
 <Sx>= 0.0000 <Sy>= 0.0000 <Sz>= 0.5000 <S**2>= 0.7586 S= 0.5043
 <L.S>= 0.000000000000E+00
 Annihilation of the first spin contaminant:
 S**2 before annihilation     0.7586,   after     0.7500
 Calling FoFJK, ICntrl=      2127 FMM=F ISym2X=0 I1Cent= 0 IOpClX= 1 NMat=1 NMatS=1 NMatT=0.
 ***** Axes restored to original set *****
 -------------------------------------------------------------------
 Center     Atomic                   Forces (Hartrees/Bohr)
 Number     Number              X              Y              Z
 -------------------------------------------------------------------
      1        6          -0.000498475    0.000314281    0.000648998
      2        1           0.000450511    0.000321064    0.000773243
      3        1           0.000348905    0.000507450   -0.000863462
      4        1          -0.000938471   -0.000170275   -0.000074343
      5        1          -0.000001667    0.000479904   -0.000278776
      6        8           0.001246528   -0.002307946   -0.000705292
      7        1          -0.000607331    0.000855522    0.000499632
 -------------------------------------------------------------------
 Cartesian Forces:  Max     0.002307946 RMS     0.000779156

 GradGradGradGradGradGradGradGradGradGradGradGradGradGradGradGradGradGrad
 Berny optimization.
 Internal  Forces:  Max     0.002002624 RMS     0.000839347
 Search for a saddle point.
 Step number   2 out of a maximum of   28
 All quantities printed in internal units (Hartrees-Bohrs-Radians)
 Swaping is turned off.
 Update second derivatives using D2CorX and points    1    2
 The second derivative matrix:
                          R1        R2        R3        R4        R5
           R1           0.39719
           R2          -0.00017   0.39822
           R3          -0.00007  -0.00018   0.39716
           R4           0.00014  -0.00072   0.00014   0.16987
           R5          -0.00176  -0.00199  -0.00178   0.10607   0.01239
           R6          -0.00043  -0.00049  -0.00043   0.00500  -0.00962
           A1           0.00723   0.00717  -0.00352  -0.01278   0.00744
           A2           0.00734  -0.00382   0.00735  -0.01316   0.00664
           A3           0.00140  -0.00598  -0.00595   0.01408  -0.00618
           A4          -0.00352   0.00716   0.00724  -0.01278   0.00744
           A5          -0.00639   0.00156  -0.00638   0.01071  -0.00899
           A6          -0.00595  -0.00598   0.00136   0.01407  -0.00618
           A7           0.00207   0.00094   0.00208   0.00532  -0.00520
           A8           0.00014  -0.00463   0.00015  -0.00024  -0.00262
           A9          -0.00168   0.00000   0.00169   0.00000   0.00000
           D1           0.00038  -0.00532   0.00568   0.00056   0.00060
           D2           0.00593   0.00001  -0.00592   0.00000   0.00000
           D3          -0.00569   0.00531  -0.00037  -0.00056  -0.00060
                          R6        A1        A2        A3        A4
           R6           0.56921
           A1           0.00124   0.06085
           A2           0.00100  -0.00444   0.06198
           A3          -0.00067  -0.02627  -0.02640   0.07211
           A4           0.00123  -0.00380  -0.00444  -0.00024   0.06085
           A5          -0.00210  -0.02616  -0.00033  -0.00944  -0.02618
           A6          -0.00067  -0.00024  -0.02640  -0.00973  -0.02625
           A7           0.00450  -0.00057   0.00082  -0.00145  -0.00057
           A8           0.00025  -0.00183   0.00953  -0.00025  -0.00184
           A9           0.00000  -0.00435   0.00000  -0.00079   0.00434
           D1           0.00014  -0.02118   0.02026   0.00096   0.00010
           D2           0.00000   0.02034   0.00000   0.00699  -0.02035
           D3          -0.00014  -0.00009  -0.02026  -0.00499   0.02117
                          A5        A6        A7        A8        A9
           A5           0.07165
           A6          -0.00944   0.07208
           A7           0.00312  -0.00145   0.07271
           A8          -0.00529  -0.00024  -0.00375   0.01870
           A9           0.00000   0.00080   0.00001  -0.00001   0.00357
           D1          -0.00514   0.00498   0.00031   0.00264   0.00097
           D2           0.00001  -0.00699   0.00000   0.00000  -0.00430
           D3           0.00514  -0.00095  -0.00031  -0.00265   0.00097
                          D1        D2        D3
           D1           0.01871
           D2          -0.00922   0.01933
           D3          -0.00891  -0.00921   0.01870
     Eigenvalues ---   -0.04771  -0.00001   0.00346   0.01713   0.06920
     Eigenvalues ---    0.07098   0.07449   0.10371   0.10452   0.10732
     Eigenvalues ---    0.22681   0.39794   0.39809   0.39915   0.56946
     Eigenvalues --- 1000.000001000.000001000.00000
 Eigenvectors required to have negative eigenvalues:
                          R5        R4        A5        A3        A6
   1                    0.86635  -0.45241   0.08792   0.08290   0.08285
                          A4        A1        A2        A7        A8
   1                   -0.07630  -0.07629  -0.07191   0.05752   0.05033
 RFO step:  Lambda0=1.303677427D-05 Lambda=-1.59806486D-04.
 Linear search not attempted -- option 19 set.
 Iteration  1 RMS(Cart)=  0.03743544 RMS(Int)=  0.00095640
 Iteration  2 RMS(Cart)=  0.00115894 RMS(Int)=  0.00012598
 Iteration  3 RMS(Cart)=  0.00000037 RMS(Int)=  0.00012598
 Variable       Old X    -DE/DX   Delta X   Delta X   Delta X     New X
                                 (Linear)    (Quad)   (Total)
    R1        2.05520   0.00094   0.00000   0.00250   0.00250   2.05770
    R2        2.05564   0.00106   0.00000   0.00303   0.00303   2.05868
    R3        2.05518   0.00095   0.00000   0.00251   0.00251   2.05770
    R4        2.23649   0.00116   0.00000   0.01614   0.01614   2.25263
    R5        2.56122   0.00158   0.00000  -0.01185  -0.01185   2.54937
    R6        1.83937   0.00041   0.00000   0.00056   0.00056   1.83993
    A1        1.95744  -0.00003   0.00000   0.00160   0.00171   1.95914
    A2        1.96180   0.00025   0.00000   0.00222   0.00198   1.96378
    A3        1.87778  -0.00013   0.00000  -0.00392  -0.00396   1.87382
    A4        1.95747  -0.00003   0.00000   0.00154   0.00165   1.95912
    A5        1.82251   0.00005   0.00000   0.00181   0.00190   1.82442
    A6        1.87769  -0.00013   0.00000  -0.00388  -0.00392   1.87377
    A7        1.75354  -0.00200   0.00000  -0.02659  -0.02659   1.72695
    A8        3.22575   0.00128   0.00000   0.06386   0.06394   3.28968
    A9        3.14134   0.00000   0.00000   0.00102   0.00102   3.14236
    D1        1.04492  -0.00009   0.00000  -0.00782  -0.00752   1.03740
    D2        3.13964   0.00000   0.00000   0.00161   0.00161   3.14124
    D3       -1.04878   0.00009   0.00000   0.01074   0.01044  -1.03834
         Item               Value     Threshold  Converged?
 Maximum Force            0.002003     0.000450     NO 
 RMS     Force            0.000839     0.000300     NO 
 Maximum Displacement     0.090457     0.001800     NO 
 RMS     Displacement     0.037806     0.001200     NO 
 Predicted change in Energy=-7.381706D-05
 GradGradGradGradGradGradGradGradGradGradGradGradGradGradGradGradGradGrad

                          Input orientation:                          
 ---------------------------------------------------------------------
 Center     Atomic      Atomic             Coordinates (Angstroms)
 Number     Number       Type             X           Y           Z
 ---------------------------------------------------------------------
      1          6           0        0.740558    1.761365   -0.867033
      2          1           0        1.134078    2.195233    0.050890
      3          1           0        1.101327    2.278443   -1.755447
      4          1           0       -0.344570    1.671890   -0.854190
      5          1           0        1.187154    0.660054   -0.959905
      6          8           0        1.599233   -0.622764   -0.892386
      7          1           0        1.174866   -0.874145   -0.052916
 ---------------------------------------------------------------------
                    Distance matrix (angstroms):
                    1          2          3          4          5
     1  C    0.000000
     2  H    1.088889   0.000000
     3  H    1.089405   1.808549   0.000000
     4  H    1.088886   1.810927   1.808532   0.000000
     5  H    1.192040   1.838831   1.805390   1.838794   0.000000
     6  O    2.534174   3.007864   3.067538   3.007535   1.349070
     7  H    2.792369   3.071404   3.583689   3.071322   1.782287
                    6          7
     6  O    0.000000
     7  H    0.973647   0.000000
 Stoichiometry    CH5O(2)
 Framework group  C1[X(CH5O)]
 Deg. of freedom    15
 Full point group                 C1      NOp   1
 Largest Abelian subgroup         C1      NOp   1
 Largest concise Abelian subgroup C1      NOp   1
                         Standard orientation:                         
 ---------------------------------------------------------------------
 Center     Atomic      Atomic             Coordinates (Angstroms)
 Number     Number       Type             X           Y           Z
 ---------------------------------------------------------------------
      1          6           0        1.219718   -0.009231    0.000004
      2          1           0        1.478291   -0.556499   -0.905158
      3          1           0        1.623090    1.002745   -0.000370
      4          1           0        1.477936   -0.555663    0.905768
      5          1           0        0.037079    0.140186   -0.000261
      6          8           0       -1.311652    0.109952   -0.000002
      7          1           0       -1.441485   -0.854999    0.000010
 ---------------------------------------------------------------------
 Rotational constants (GHZ):    120.4690963      9.0402249      8.8985609
 Standard basis: 6-31+G(d,p) (6D, 7F)
 There are    63 symmetry adapted basis functions of A   symmetry.
 Integral buffers will be    262144 words long.
 Raffenetti 2 integral format.
 Two-electron integral symmetry is turned on.
    63 basis functions,    99 primitive gaussians,    63 cartesian basis functions
    10 alpha electrons        9 beta electrons
       nuclear repulsion energy        36.7864366330 Hartrees.
 NAtoms=    7 NActive=    7 NUniq=    7 SFac= 7.50D-01 NAtFMM=   80 NAOKFM=F Big=F
 One-electron integrals computed using PRISM.
 NBasis=    63 RedAO= T  NBF=    63
 NBsUse=    63 1.00D-06 NBFU=    63
 Initial guess read from the read-write file.
 B after Tr=     0.000000    0.000000    0.000000
         Rot=    1.000000    0.000000    0.000000    0.000000 Ang=   0.00 deg.
 Initial guess orbital symmetries:
 Alpha Orbitals:
       Occupied  (A) (A) (A) (A) (A) (A) (A) (A) (A) (A)
       Virtual   (A) (A) (A) (A) (A) (A) (A) (A) (A) (A) (A) (A)
                 (A) (A) (A) (A) (A) (A) (A) (A) (A) (A) (A) (A)
                 (A) (A) (A) (A) (A) (A) (A) (A) (A) (A) (A) (A)
                 (A) (A) (A) (A) (A) (A) (A) (A) (A) (A) (A) (A)
                 (A) (A) (A) (A) (A)
 Beta  Orbitals:
       Occupied  (A) (A) (A) (A) (A) (A) (A) (A) (A)
       Virtual   (A) (A) (A) (A) (A) (A) (A) (A) (A) (A) (A) (A)
                 (A) (A) (A) (A) (A) (A) (A) (A) (A) (A) (A) (A)
                 (A) (A) (A) (A) (A) (A) (A) (A) (A) (A) (A) (A)
                 (A) (A) (A) (A) (A) (A) (A) (A) (A) (A) (A) (A)
                 (A) (A) (A) (A) (A) (A)
 Initial guess <Sx>= 0.0000 <Sy>= 0.0000 <Sz>= 0.5000 <S**2>= 0.7586 S= 0.5043
 Harris functional with IExCor= 1009 diagonalized for initial guess.
 ExpMin= 4.38D-02 ExpMax= 5.48D+03 ExpMxC= 8.25D+02 IAcc=2 IRadAn=         0 AccDes= 0.00D+00
 HarFok:  IExCor= 1009 AccDes= 0.00D+00 IRadAn=         0 IDoV= 1
 ScaDFX=  1.000000  1.000000  1.000000  1.000000
 FoFCou: FMM=F IPFlag=           0 FMFlag=      100000 FMFlg1=           0
         NFxFlg=           0 DoJE=T BraDBF=F KetDBF=T FulRan=T
         Omega=  0.000000  0.000000  1.000000  0.000000  0.000000 ICntrl=     500 IOpCl=  0
         NMat0=    1 NMatS0=    1 NMatT0=    0 NMatD0=    1 NMtDS0=    0 NMtDT0=    0
         I1Cent=           4 NGrid=           0.
 Petite list used in FoFCou.
 Requested convergence on RMS density matrix=1.00D-08 within 128 cycles.
 Requested convergence on MAX density matrix=1.00D-06.
 Requested convergence on             energy=1.00D-06.
 No special actions if energy rises.
 Keep R1 and R2 ints in memory in canonical form, NReq=5033315.
 SCF Done:  E(UM062X) =  -116.180317629     A.U. after   15 cycles
             Convg  =    0.2500D-08             -V/T =  2.0086
 <Sx>= 0.0000 <Sy>= 0.0000 <Sz>= 0.5000 <S**2>= 0.7588 S= 0.5044
 <L.S>= 0.000000000000E+00
 Annihilation of the first spin contaminant:
 S**2 before annihilation     0.7588,   after     0.7500
 Calling FoFJK, ICntrl=      2127 FMM=F ISym2X=0 I1Cent= 0 IOpClX= 1 NMat=1 NMatS=1 NMatT=0.
 ***** Axes restored to original set *****
 -------------------------------------------------------------------
 Center     Atomic                   Forces (Hartrees/Bohr)
 Number     Number              X              Y              Z
 -------------------------------------------------------------------
      1        6           0.000026606   -0.000464236    0.000226002
      2        1           0.000055460    0.000050937   -0.000080606
      3        1           0.000007291   -0.000084700    0.000039473
      4        1           0.000021671    0.000040048   -0.000099364
      5        1          -0.000139628    0.000908076   -0.000302648
      6        8          -0.000077264   -0.000201765    0.000247596
      7        1           0.000105864   -0.000248360   -0.000030454
 -------------------------------------------------------------------
 Cartesian Forces:  Max     0.000908076 RMS     0.000259825

 GradGradGradGradGradGradGradGradGradGradGradGradGradGradGradGradGradGrad
 Berny optimization.
 Internal  Forces:  Max     0.000503663 RMS     0.000203178
 Search for a saddle point.
 Step number   3 out of a maximum of   28
 All quantities printed in internal units (Hartrees-Bohrs-Radians)
 Swaping is turned off.
 Update second derivatives using D2CorX and points    1    2    3
 The second derivative matrix:
                          R1        R2        R3        R4        R5
           R1           0.39722
           R2          -0.00011   0.39834
           R3          -0.00005  -0.00011   0.39718
           R4           0.00054  -0.00009   0.00053   0.17265
           R5          -0.00215  -0.00254  -0.00216   0.10388   0.01397
           R6          -0.00041  -0.00046  -0.00042   0.00519  -0.00980
           A1           0.00727   0.00727  -0.00348  -0.01226   0.00697
           A2           0.00725  -0.00390   0.00726  -0.01332   0.00661
           A3           0.00131  -0.00614  -0.00603   0.01330  -0.00551
           A4          -0.00348   0.00725   0.00728  -0.01227   0.00698
           A5          -0.00625   0.00172  -0.00624   0.01119  -0.00921
           A6          -0.00604  -0.00614   0.00128   0.01329  -0.00550
           A7           0.00162   0.00010   0.00164   0.00094  -0.00137
           A8           0.00017  -0.00419   0.00016   0.00357  -0.00681
           A9          -0.00168   0.00001   0.00170   0.00007  -0.00007
           D1           0.00032  -0.00544   0.00562  -0.00013   0.00124
           D2           0.00593   0.00002  -0.00592   0.00010  -0.00010
           D3          -0.00563   0.00546  -0.00031   0.00030  -0.00142
                          R6        A1        A2        A3        A4
           R6           0.56921
           A1           0.00126   0.06092
           A2           0.00096  -0.00453   0.06184
           A3          -0.00071  -0.02639  -0.02630   0.07230
           A4           0.00126  -0.00373  -0.00452  -0.00036   0.06092
           A5          -0.00203  -0.02601  -0.00020  -0.00964  -0.02603
           A6          -0.00071  -0.00037  -0.02630  -0.00953  -0.02637
           A7           0.00428  -0.00123   0.00144  -0.00036  -0.00122
           A8           0.00025  -0.00156   0.00815  -0.00089  -0.00158
           A9           0.00000  -0.00434  -0.00002  -0.00080   0.00435
           D1           0.00011  -0.02127   0.02039   0.00113   0.00000
           D2           0.00000   0.02034  -0.00003   0.00697  -0.02034
           D3          -0.00011   0.00002  -0.02045  -0.00518   0.02127
                          A5        A6        A7        A8        A9
           A5           0.07157
           A6          -0.00963   0.07228
           A7           0.00197  -0.00035   0.07865
           A8          -0.00341  -0.00090  -0.00688   0.01471
           A9           0.00003   0.00078  -0.00006  -0.00004   0.00357
           D1          -0.00535   0.00515   0.00118   0.00242   0.00097
           D2           0.00006  -0.00701  -0.00009  -0.00007  -0.00430
           D3           0.00543  -0.00115  -0.00132  -0.00258   0.00098
                          D1        D2        D3
           D1           0.01882
           D2          -0.00922   0.01933
           D3          -0.00904  -0.00921   0.01884
     Eigenvalues ---   -0.04461  -0.00001   0.00346   0.01430   0.07102
     Eigenvalues ---    0.07104   0.07897   0.10371   0.10445   0.10682
     Eigenvalues ---    0.22745   0.39800   0.39810   0.39925   0.56947
     Eigenvalues --- 1000.000001000.000001000.00000
 Eigenvectors required to have negative eigenvalues:
                          R5        R4        A8        A5        A6
   1                    0.86245  -0.44252   0.14321   0.09454   0.07811
                          A3        A4        A1        A2        D3
   1                    0.07807  -0.07388  -0.07376  -0.07281   0.03060
 RFO step:  Lambda0=8.112394499D-06 Lambda=-1.43322463D-05.
 Linear search not attempted -- option 19 set.
 Maximum step size (   0.300) exceeded in Quadratic search.
    -- Step size scaled by   0.072
 Iteration  1 RMS(Cart)=  0.05807203 RMS(Int)=  0.00384147
 Iteration  2 RMS(Cart)=  0.00356559 RMS(Int)=  0.00015191
 Iteration  3 RMS(Cart)=  0.00001045 RMS(Int)=  0.00015162
 Iteration  4 RMS(Cart)=  0.00000000 RMS(Int)=  0.00015162
 Variable       Old X    -DE/DX   Delta X   Delta X   Delta X     New X
                                 (Linear)    (Quad)   (Total)
    R1        2.05770  -0.00003   0.00000  -0.00003  -0.00003   2.05768
    R2        2.05868  -0.00007   0.00000   0.00000   0.00000   2.05867
    R3        2.05770  -0.00003   0.00000   0.00005   0.00005   2.05775
    R4        2.25263  -0.00046   0.00000  -0.00042  -0.00041   2.25222
    R5        2.54937   0.00045   0.00000   0.00086   0.00086   2.55023
    R6        1.83993  -0.00001   0.00000   0.00002   0.00002   1.83995
    A1        1.95914  -0.00005   0.00000  -0.00371  -0.00383   1.95532
    A2        1.96378   0.00009   0.00000  -0.00013   0.00016   1.96394
    A3        1.87382   0.00009   0.00000   0.00455   0.00461   1.87843
    A4        1.95912  -0.00005   0.00000   0.00355   0.00340   1.96252
    A5        1.82442  -0.00017   0.00000   0.00025   0.00013   1.82454
    A6        1.87377   0.00009   0.00000  -0.00447  -0.00443   1.86934
    A7        1.72695   0.00050   0.00000  -0.00028  -0.00028   1.72667
    A8        3.28968   0.00007   0.00000  -0.00218  -0.00227   3.28741
    A9        3.14236   0.00000   0.00000  -0.12631  -0.12630   3.01606
    D1        1.03740   0.00008   0.00000  -0.15111  -0.15146   0.88594
    D2        3.14124   0.00000   0.00000  -0.16785  -0.16787   2.97337
    D3       -1.03834  -0.00008   0.00000  -0.15154  -0.15117  -1.18951
         Item               Value     Threshold  Converged?
 Maximum Force            0.000504     0.000450     NO 
 RMS     Force            0.000203     0.000300     YES
 Maximum Displacement     0.136136     0.001800     NO 
 RMS     Displacement     0.058092     0.001200     NO 
 Predicted change in Energy=-1.071035D-06
 GradGradGradGradGradGradGradGradGradGradGradGradGradGradGradGradGradGrad

                          Input orientation:                          
 ---------------------------------------------------------------------
 Center     Atomic      Atomic             Coordinates (Angstroms)
 Number     Number       Type             X           Y           Z
 ---------------------------------------------------------------------
      1          6           0        0.734243    1.758163   -0.870642
      2          1           0        1.125274    2.155632    0.064646
      3          1           0        1.130771    2.286698   -1.736792
      4          1           0       -0.353298    1.704091   -0.878638
      5          1           0        1.141480    0.644204   -0.987655
      6          8           0        1.567270   -0.633935   -0.908424
      7          1           0        1.246906   -0.844780   -0.013481
 ---------------------------------------------------------------------
                    Distance matrix (angstroms):
                    1          2          3          4          5
     1  C    0.000000
     2  H    1.088876   0.000000
     3  H    1.089403   1.806208   0.000000
     4  H    1.088914   1.811035   1.810613   0.000000
     5  H    1.191821   1.841742   1.805300   1.835648   0.000000
     6  O    2.533278   2.987292   3.067055   3.025861   1.349524
     7  H    2.787985   3.003893   3.576233   3.131436   1.782471
                    6          7
     6  O    0.000000
     7  H    0.973659   0.000000
 Stoichiometry    CH5O(2)
 Framework group  C1[X(CH5O)]
 Deg. of freedom    15
 Full point group                 C1      NOp   1
 Largest Abelian subgroup         C1      NOp   1
 Largest concise Abelian subgroup C1      NOp   1
                         Standard orientation:                         
 ---------------------------------------------------------------------
 Center     Atomic      Atomic             Coordinates (Angstroms)
 Number     Number       Type             X           Y           Z
 ---------------------------------------------------------------------
      1          6           0       -1.219049    0.009155    0.000105
      2          1           0       -1.448120    0.687140   -0.820573
      3          1           0       -1.622120   -0.988629   -0.169487
      4          1           0       -1.506793    0.414632    0.968880
      5          1           0       -0.037457   -0.145169    0.021632
      6          8           0        1.311433   -0.109821    0.000179
      7          1           0        1.437317    0.855662   -0.002510
 ---------------------------------------------------------------------
 Rotational constants (GHZ):    120.4331917      9.0475236      8.9059241
 Standard basis: 6-31+G(d,p) (6D, 7F)
 There are    63 symmetry adapted basis functions of A   symmetry.
 Integral buffers will be    262144 words long.
 Raffenetti 2 integral format.
 Two-electron integral symmetry is turned on.
    63 basis functions,    99 primitive gaussians,    63 cartesian basis functions
    10 alpha electrons        9 beta electrons
       nuclear repulsion energy        36.7934232208 Hartrees.
 NAtoms=    7 NActive=    7 NUniq=    7 SFac= 7.50D-01 NAtFMM=   80 NAOKFM=F Big=F
 One-electron integrals computed using PRISM.
 NBasis=    63 RedAO= T  NBF=    63
 NBsUse=    63 1.00D-06 NBFU=    63
 Initial guess read from the read-write file.
 B after Tr=     0.000000    0.000000    0.000000
         Rot=    1.000000    0.000000    0.000000    0.000000 Ang=   0.00 deg.
 Initial guess orbital symmetries:
 Alpha Orbitals:
       Occupied  (A) (A) (A) (A) (A) (A) (A) (A) (A) (A)
       Virtual   (A) (A) (A) (A) (A) (A) (A) (A) (A) (A) (A) (A)
                 (A) (A) (A) (A) (A) (A) (A) (A) (A) (A) (A) (A)
                 (A) (A) (A) (A) (A) (A) (A) (A) (A) (A) (A) (A)
                 (A) (A) (A) (A) (A) (A) (A) (A) (A) (A) (A) (A)
                 (A) (A) (A) (A) (A)
 Beta  Orbitals:
       Occupied  (A) (A) (A) (A) (A) (A) (A) (A) (A)
       Virtual   (A) (A) (A) (A) (A) (A) (A) (A) (A) (A) (A) (A)
                 (A) (A) (A) (A) (A) (A) (A) (A) (A) (A) (A) (A)
                 (A) (A) (A) (A) (A) (A) (A) (A) (A) (A) (A) (A)
                 (A) (A) (A) (A) (A) (A) (A) (A) (A) (A) (A) (A)
                 (A) (A) (A) (A) (A) (A)
 Initial guess <Sx>= 0.0000 <Sy>= 0.0000 <Sz>= 0.5000 <S**2>= 0.8361 S= 0.5422
 Harris functional with IExCor= 1009 diagonalized for initial guess.
 ExpMin= 4.38D-02 ExpMax= 5.48D+03 ExpMxC= 8.25D+02 IAcc=2 IRadAn=         0 AccDes= 0.00D+00
 HarFok:  IExCor= 1009 AccDes= 0.00D+00 IRadAn=         0 IDoV= 1
 ScaDFX=  1.000000  1.000000  1.000000  1.000000
 FoFCou: FMM=F IPFlag=           0 FMFlag=      100000 FMFlg1=           0
         NFxFlg=           0 DoJE=T BraDBF=F KetDBF=T FulRan=T
         Omega=  0.000000  0.000000  1.000000  0.000000  0.000000 ICntrl=     500 IOpCl=  0
         NMat0=    1 NMatS0=    1 NMatT0=    0 NMatD0=    1 NMtDS0=    0 NMtDT0=    0
         I1Cent=           4 NGrid=           0.
 Petite list used in FoFCou.
 Requested convergence on RMS density matrix=1.00D-08 within 128 cycles.
 Requested convergence on MAX density matrix=1.00D-06.
 Requested convergence on             energy=1.00D-06.
 No special actions if energy rises.
 Keep R1 and R2 ints in memory in canonical form, NReq=5033315.
 SCF Done:  E(UM062X) =  -116.180298742     A.U. after   17 cycles
             Convg  =    0.1215D-08             -V/T =  2.0086
 <Sx>= 0.0000 <Sy>= 0.0000 <Sz>= 0.5000 <S**2>= 0.7587 S= 0.5044
 <L.S>= 0.000000000000E+00
 Annihilation of the first spin contaminant:
 S**2 before annihilation     0.7587,   after     0.7500
 Calling FoFJK, ICntrl=      2127 FMM=F ISym2X=0 I1Cent= 0 IOpClX= 1 NMat=1 NMatS=1 NMatT=0.
 ***** Axes restored to original set *****
 -------------------------------------------------------------------
 Center     Atomic                   Forces (Hartrees/Bohr)
 Number     Number              X              Y              Z
 -------------------------------------------------------------------
      1        6           0.000181945   -0.000514716    0.000140685
      2        1          -0.000008637   -0.000000973    0.000027570
      3        1          -0.000207908   -0.000075243   -0.000076351
      4        1           0.000020996    0.000100684   -0.000154497
      5        1           0.000035215    0.001064128   -0.000096389
      6        8          -0.000163305   -0.000306189    0.000198636
      7        1           0.000141695   -0.000267691   -0.000039653
 -------------------------------------------------------------------
 Cartesian Forces:  Max     0.001064128 RMS     0.000293088

 GradGradGradGradGradGradGradGradGradGradGradGradGradGradGradGradGradGrad
 Berny optimization.
 Internal  Forces:  Max     0.000555064 RMS     0.000229316
 Search for a saddle point.
 Step number   4 out of a maximum of   28
 All quantities printed in internal units (Hartrees-Bohrs-Radians)
 Swaping is turned off.
 Update second derivatives using D2CorX and points    1    2    3    4
 The second derivative matrix:
                          R1        R2        R3        R4        R5
           R1           0.39719
           R2          -0.00014   0.39830
           R3          -0.00007  -0.00014   0.39717
           R4           0.00042  -0.00017   0.00040   0.17319
           R5          -0.00207  -0.00252  -0.00205   0.10303   0.01506
           R6          -0.00042  -0.00048  -0.00042   0.00508  -0.00971
           A1           0.00722   0.00720  -0.00353  -0.01241   0.00701
           A2           0.00728  -0.00390   0.00730  -0.01366   0.00705
           A3           0.00135  -0.00609  -0.00599   0.01336  -0.00548
           A4          -0.00348   0.00725   0.00730  -0.01245   0.00718
           A5          -0.00630   0.00171  -0.00632   0.01175  -0.00992
           A6          -0.00600  -0.00610   0.00130   0.01335  -0.00548
           A7           0.00181   0.00030   0.00177   0.00122  -0.00128
           A8           0.00019  -0.00417   0.00024   0.00298  -0.00611
           A9          -0.00164   0.00000   0.00166   0.00004   0.00004
           D1           0.00044  -0.00539   0.00565  -0.00024   0.00160
           D2           0.00600   0.00002  -0.00594   0.00005   0.00010
           D3          -0.00555   0.00548  -0.00032   0.00027  -0.00123
                          R6        A1        A2        A3        A4
           R6           0.56921
           A1           0.00123   0.06083
           A2           0.00100  -0.00453   0.06203
           A3          -0.00069  -0.02632  -0.02628   0.07225
           A4           0.00127  -0.00377  -0.00441  -0.00033   0.06101
           A5          -0.00209  -0.02600  -0.00051  -0.00967  -0.02621
           A6          -0.00070  -0.00029  -0.02630  -0.00958  -0.02638
           A7           0.00437  -0.00087   0.00145  -0.00061  -0.00120
           A8           0.00033  -0.00162   0.00851  -0.00085  -0.00128
           A9          -0.00004  -0.00419  -0.00013  -0.00083   0.00404
           D1           0.00012  -0.02101   0.02039   0.00104  -0.00026
           D2          -0.00003   0.02057  -0.00013   0.00692  -0.02071
           D3          -0.00013   0.00022  -0.02051  -0.00524   0.02099
                          A5        A6        A7        A8        A9
           A5           0.07208
           A6          -0.00962   0.07225
           A7           0.00196  -0.00053   0.07774
           A8          -0.00404  -0.00092  -0.00693   0.01528
           A9           0.00028   0.00085   0.00021  -0.00020   0.00399
           D1          -0.00525   0.00515   0.00116   0.00261   0.00106
           D2           0.00032  -0.00694   0.00016  -0.00015  -0.00389
           D3           0.00562  -0.00112  -0.00123  -0.00253   0.00113
                          D1        D2        D3
           D1           0.01843
           D2          -0.00928   0.01967
           D3          -0.00931  -0.00916   0.01868
     Eigenvalues ---   -0.04313   0.00011   0.00357   0.01455   0.07103
     Eigenvalues ---    0.07143   0.07815   0.10372   0.10445   0.10728
     Eigenvalues ---    0.22752   0.39796   0.39809   0.39922   0.56947
     Eigenvalues --- 1000.000001000.000001000.00000
 Eigenvectors required to have negative eigenvalues:
                          R5        R4        A8        A5        A3
   1                    0.86256  -0.44206   0.13350   0.10203   0.07972
                          A4        A6        A2        A1        D1
   1                   -0.07785   0.07749  -0.07705  -0.07300  -0.03106
 RFO step:  Lambda0=1.152263479D-05 Lambda=-2.37625877D-05.
 Linear search not attempted -- option 19 set.
 Iteration  1 RMS(Cart)=  0.05524982 RMS(Int)=  0.00348562
 Iteration  2 RMS(Cart)=  0.00321458 RMS(Int)=  0.00014235
 Iteration  3 RMS(Cart)=  0.00000759 RMS(Int)=  0.00014217
 Iteration  4 RMS(Cart)=  0.00000000 RMS(Int)=  0.00014217
 Variable       Old X    -DE/DX   Delta X   Delta X   Delta X     New X
                                 (Linear)    (Quad)   (Total)
    R1        2.05768   0.00002   0.00000  -0.00029  -0.00029   2.05739
    R2        2.05867  -0.00006   0.00000  -0.00022  -0.00022   2.05846
    R3        2.05775  -0.00003   0.00000  -0.00036  -0.00036   2.05739
    R4        2.25222  -0.00045   0.00000   0.00575   0.00575   2.25797
    R5        2.55023   0.00055   0.00000  -0.01315  -0.01315   2.53708
    R6        1.83995  -0.00002   0.00000  -0.00037  -0.00037   1.83957
    A1        1.95532   0.00008   0.00000   0.00456   0.00448   1.95979
    A2        1.96394   0.00004   0.00000   0.00224   0.00250   1.96645
    A3        1.87843   0.00005   0.00000  -0.00474  -0.00468   1.87375
    A4        1.96252  -0.00023   0.00000  -0.00235  -0.00253   1.95999
    A5        1.82454  -0.00003   0.00000  -0.00427  -0.00438   1.82016
    A6        1.86934   0.00011   0.00000   0.00386   0.00388   1.87322
    A7        1.72667   0.00056   0.00000   0.00639   0.00639   1.73307
    A8        3.28741   0.00007   0.00000   0.00051   0.00042   3.28784
    A9        3.01606   0.00016   0.00000   0.12073   0.12074   3.13680
    D1        0.88594  -0.00002   0.00000   0.14496   0.14467   1.03061
    D2        2.97337   0.00011   0.00000   0.15882   0.15873   3.13210
    D3       -1.18951  -0.00012   0.00000   0.14060   0.14097  -1.04853
         Item               Value     Threshold  Converged?
 Maximum Force            0.000555     0.000450     NO 
 RMS     Force            0.000229     0.000300     YES
 Maximum Displacement     0.125996     0.001800     NO 
 RMS     Displacement     0.055131     0.001200     NO 
 Predicted change in Energy=-7.089727D-06
 GradGradGradGradGradGradGradGradGradGradGradGradGradGradGradGradGradGrad

                          Input orientation:                          
 ---------------------------------------------------------------------
 Center     Atomic      Atomic             Coordinates (Angstroms)
 Number     Number       Type             X           Y           Z
 ---------------------------------------------------------------------
      1          6           0        0.739285    1.762106   -0.866156
      2          1           0        1.133726    2.194612    0.051817
      3          1           0        1.104343    2.275439   -1.754846
      4          1           0       -0.345853    1.674401   -0.856215
      5          1           0        1.184764    0.657356   -0.959857
      6          8           0        1.596148   -0.618925   -0.893908
      7          1           0        1.180232   -0.874914   -0.051822
 ---------------------------------------------------------------------
                    Distance matrix (angstroms):
                    1          2          3          4          5
     1  C    0.000000
     2  H    1.088724   0.000000
     3  H    1.089288   1.808708   0.000000
     4  H    1.088722   1.812263   1.808826   0.000000
     5  H    1.194866   1.840990   1.804624   1.840628   0.000000
     6  O    2.530670   3.004035   3.059482   3.005351   1.342564
     7  H    2.794896   3.071627   3.582007   3.078148   1.781123
                    6          7
     6  O    0.000000
     7  H    0.973461   0.000000
 Stoichiometry    CH5O(2)
 Framework group  C1[X(CH5O)]
 Deg. of freedom    15
 Full point group                 C1      NOp   1
 Largest Abelian subgroup         C1      NOp   1
 Largest concise Abelian subgroup C1      NOp   1
                         Standard orientation:                         
 ---------------------------------------------------------------------
 Center     Atomic      Atomic             Coordinates (Angstroms)
 Number     Number       Type             X           Y           Z
 ---------------------------------------------------------------------
      1          6           0        1.218799   -0.009757    0.000008
      2          1           0        1.476363   -0.563156   -0.901507
      3          1           0        1.616824    1.004160   -0.009758
      4          1           0        1.478696   -0.546829    0.910680
      5          1           0        0.033212    0.138865    0.000562
      6          8           0       -1.309040    0.109927    0.000000
      7          1           0       -1.445567   -0.853913   -0.000021
 ---------------------------------------------------------------------
 Rotational constants (GHZ):    120.4462004      9.0634454      8.9217015
 Standard basis: 6-31+G(d,p) (6D, 7F)
 There are    63 symmetry adapted basis functions of A   symmetry.
 Integral buffers will be    262144 words long.
 Raffenetti 2 integral format.
 Two-electron integral symmetry is turned on.
    63 basis functions,    99 primitive gaussians,    63 cartesian basis functions
    10 alpha electrons        9 beta electrons
       nuclear repulsion energy        36.8157508779 Hartrees.
 NAtoms=    7 NActive=    7 NUniq=    7 SFac= 7.50D-01 NAtFMM=   80 NAOKFM=F Big=F
 One-electron integrals computed using PRISM.
 NBasis=    63 RedAO= T  NBF=    63
 NBsUse=    63 1.00D-06 NBFU=    63
 Initial guess read from the read-write file.
 B after Tr=     0.000000    0.000000    0.000000
         Rot=    1.000000    0.000000    0.000000    0.000000 Ang=   0.00 deg.
 Initial guess orbital symmetries:
 Alpha Orbitals:
       Occupied  (A) (A) (A) (A) (A) (A) (A) (A) (A) (A)
       Virtual   (A) (A) (A) (A) (A) (A) (A) (A) (A) (A) (A) (A)
                 (A) (A) (A) (A) (A) (A) (A) (A) (A) (A) (A) (A)
                 (A) (A) (A) (A) (A) (A) (A) (A) (A) (A) (A) (A)
                 (A) (A) (A) (A) (A) (A) (A) (A) (A) (A) (A) (A)
                 (A) (A) (A) (A) (A)
 Beta  Orbitals:
       Occupied  (A) (A) (A) (A) (A) (A) (A) (A) (A)
       Virtual   (A) (A) (A) (A) (A) (A) (A) (A) (A) (A) (A) (A)
                 (A) (A) (A) (A) (A) (A) (A) (A) (A) (A) (A) (A)
                 (A) (A) (A) (A) (A) (A) (A) (A) (A) (A) (A) (A)
                 (A) (A) (A) (A) (A) (A) (A) (A) (A) (A) (A) (A)
                 (A) (A) (A) (A) (A) (A)
 Initial guess <Sx>= 0.0000 <Sy>= 0.0000 <Sz>= 0.5000 <S**2>= 0.8351 S= 0.5417
 Harris functional with IExCor= 1009 diagonalized for initial guess.
 ExpMin= 4.38D-02 ExpMax= 5.48D+03 ExpMxC= 8.25D+02 IAcc=2 IRadAn=         0 AccDes= 0.00D+00
 HarFok:  IExCor= 1009 AccDes= 0.00D+00 IRadAn=         0 IDoV= 1
 ScaDFX=  1.000000  1.000000  1.000000  1.000000
 FoFCou: FMM=F IPFlag=           0 FMFlag=      100000 FMFlg1=           0
         NFxFlg=           0 DoJE=T BraDBF=F KetDBF=T FulRan=T
         Omega=  0.000000  0.000000  1.000000  0.000000  0.000000 ICntrl=     500 IOpCl=  0
         NMat0=    1 NMatS0=    1 NMatT0=    0 NMatD0=    1 NMtDS0=    0 NMtDT0=    0
         I1Cent=           4 NGrid=           0.
 Petite list used in FoFCou.
 Requested convergence on RMS density matrix=1.00D-08 within 128 cycles.
 Requested convergence on MAX density matrix=1.00D-06.
 Requested convergence on             energy=1.00D-06.
 No special actions if energy rises.
 Keep R1 and R2 ints in memory in canonical form, NReq=5033315.
 SCF Done:  E(UM062X) =  -116.180316166     A.U. after   17 cycles
             Convg  =    0.8352D-08             -V/T =  2.0086
 <Sx>= 0.0000 <Sy>= 0.0000 <Sz>= 0.5000 <S**2>= 0.7588 S= 0.5044
 <L.S>= 0.000000000000E+00
 Annihilation of the first spin contaminant:
 S**2 before annihilation     0.7588,   after     0.7500
 Calling FoFJK, ICntrl=      2127 FMM=F ISym2X=0 I1Cent= 0 IOpClX= 1 NMat=1 NMatS=1 NMatT=0.
 ***** Axes restored to original set *****
 -------------------------------------------------------------------
 Center     Atomic                   Forces (Hartrees/Bohr)
 Number     Number              X              Y              Z
 -------------------------------------------------------------------
      1        6           0.000029596   -0.000108823    0.000004509
      2        1           0.000010089    0.000015872    0.000011810
      3        1           0.000007925    0.000017790   -0.000017639
      4        1          -0.000018513   -0.000008759   -0.000005704
      5        1           0.000025416    0.000010989   -0.000033948
      6        8          -0.000053837    0.000122991    0.000010069
      7        1          -0.000000676   -0.000050059    0.000030903
 -------------------------------------------------------------------
 Cartesian Forces:  Max     0.000122991 RMS     0.000042472

 GradGradGradGradGradGradGradGradGradGradGradGradGradGradGradGradGradGrad
 Berny optimization.
 Internal  Forces:  Max     0.000087501 RMS     0.000038083
 Search for a saddle point.
 Step number   5 out of a maximum of   28
 All quantities printed in internal units (Hartrees-Bohrs-Radians)
 Swaping is turned off.
 Update second derivatives using D2CorX and points    1    2    3    4    5
 The second derivative matrix:
                          R1        R2        R3        R4        R5
           R1           0.39715
           R2          -0.00023   0.39817
           R3          -0.00012  -0.00023   0.39712
           R4           0.00026  -0.00026   0.00025   0.17546
           R5          -0.00122  -0.00157  -0.00128   0.10007   0.01122
           R6          -0.00052  -0.00062  -0.00051   0.00483  -0.00832
           A1           0.00722   0.00717  -0.00354  -0.01229   0.00703
           A2           0.00724  -0.00400   0.00725  -0.01349   0.00760
           A3           0.00139  -0.00603  -0.00595   0.01320  -0.00547
           A4          -0.00358   0.00710   0.00719  -0.01238   0.00753
           A5          -0.00625   0.00185  -0.00624   0.01151  -0.01025
           A6          -0.00590  -0.00596   0.00140   0.01325  -0.00613
           A7           0.00163   0.00009   0.00166   0.00126   0.00222
           A8           0.00021  -0.00422   0.00022   0.00328  -0.00412
           A9          -0.00167  -0.00005   0.00163   0.00027   0.00045
           D1           0.00035  -0.00550   0.00557  -0.00022   0.00208
           D2           0.00601   0.00004  -0.00593   0.00009   0.00008
           D3          -0.00550   0.00555  -0.00028   0.00025  -0.00185
                          R6        A1        A2        A3        A4
           R6           0.56906
           A1           0.00118   0.06092
           A2           0.00085  -0.00437   0.06228
           A3          -0.00061  -0.02634  -0.02631   0.07224
           A4           0.00112  -0.00381  -0.00444  -0.00026   0.06084
           A5          -0.00191  -0.02622  -0.00094  -0.00965  -0.02616
[...]
     5   1     0.00   0.00  -0.78    -0.39   0.07   0.00     0.10   0.76   0.00
     6   8     0.00   0.00   0.01    -0.02   0.00   0.00     0.00  -0.02   0.00
     7   1     0.00   0.00  -0.04     0.06   0.00   0.00     0.23   0.02   0.00
                    10                     11                     12
                     A                      A                      A
 Frequencies --  1465.2387              1484.9272              3096.9956
 Red. masses --     1.0429                 1.0247                 1.0243
 Frc consts  --     1.3192                 1.3313                 5.7883
 IR Inten    --     1.9982                 0.8916                 5.1842
  Atom  AN      X      Y      Z        X      Y      Z        X      Y      Z
     1   6     0.00   0.00  -0.06     0.01  -0.04   0.00     0.04   0.00   0.00
     2   1    -0.31   0.35   0.08     0.13   0.46   0.33    -0.12  -0.28   0.47
     3   1     0.00   0.00   0.72    -0.35  -0.17   0.00    -0.21   0.56   0.00
     4   1     0.31  -0.35   0.08     0.13   0.46  -0.33    -0.12  -0.28  -0.47
     5   1     0.00   0.00  -0.19     0.00  -0.41   0.00     0.00   0.00   0.00
     6   8     0.00   0.00   0.00     0.00   0.01   0.00     0.00   0.00   0.00
     7   1     0.00   0.00  -0.02    -0.09  -0.01   0.00     0.00   0.00   0.00
                    13                     14                     15
                     A                      A                      A
 Frequencies --  3221.9523              3227.8218              3793.9376
 Red. masses --     1.1072                 1.1076                 1.0670
 Frc consts  --     6.7720                 6.7990                 9.0486
 IR Inten    --     6.0016                 8.1395                37.4319
  Atom  AN      X      Y      Z        X      Y      Z        X      Y      Z
     1   6    -0.01   0.09   0.00     0.00   0.00   0.10     0.00   0.00   0.00
     2   1    -0.11  -0.21   0.38     0.16   0.35  -0.57     0.00   0.00   0.00
     3   1     0.29  -0.74   0.00     0.01  -0.02   0.02     0.00   0.00   0.00
     4   1    -0.10  -0.19  -0.34    -0.17  -0.37  -0.59     0.00   0.00   0.00
     5   1     0.00   0.02   0.00     0.00   0.00   0.01     0.02   0.01   0.00
     6   8     0.00   0.00   0.00     0.00   0.00   0.00    -0.01   0.06   0.00
     7   1     0.00   0.00   0.00     0.00   0.00   0.00     0.14  -0.99   0.00

 -------------------
 - Thermochemistry -
 -------------------
 Temperature   298.150 Kelvin.  Pressure   1.00000 Atm.
 Atom     1 has atomic number  6 and mass  12.00000
 Atom     2 has atomic number  1 and mass   1.00783
 Atom     3 has atomic number  1 and mass   1.00783
 Atom     4 has atomic number  1 and mass   1.00783
 Atom     5 has atomic number  1 and mass   1.00783
 Atom     6 has atomic number  8 and mass  15.99491
 Atom     7 has atomic number  1 and mass   1.00783
 Molecular mass:    33.03404 amu.
 Principal axes and moments of inertia in atomic units:
                           1         2         3
     Eigenvalues --    14.98403 199.06225 202.22608
           X            0.99976  -0.02203   0.00000
           Y            0.02203   0.99976   0.00000
           Z            0.00000   0.00000   1.00000
 This molecule is an asymmetric top.
 Rotational symmetry number  1.
 Rotational temperatures (Kelvin)      5.78041     0.43511     0.42830
 Rotational constants (GHZ):         120.44434     9.06622     8.92437
    1 imaginary frequencies ignored.
 Zero-point vibrational energy     135803.9 (Joules/Mol)
                                   32.45791 (Kcal/Mol)
 Warning -- explicit consideration of   3 degrees of freedom as
           vibrations may cause significant error
 Vibrational temperatures:    165.77   461.74   462.86  1184.55  1328.47
          (Kelvin)           1778.80  1896.65  1949.14  2108.15  2136.48
                             4455.88  4635.66  4644.11  5458.62
 
 Zero-point correction=                           0.051725 (Hartree/Particle)
 Thermal correction to Energy=                    0.056218
 Thermal correction to Enthalpy=                  0.057162
 Thermal correction to Gibbs Free Energy=         0.026263
 Sum of electronic and zero-point Energies=           -116.128591
 Sum of electronic and thermal Energies=              -116.124098
 Sum of electronic and thermal Enthalpies=            -116.123154
 Sum of electronic and thermal Free Energies=         -116.154053
 
                     E (Thermal)             CV                S
                      KCal/Mol        Cal/Mol-Kelvin    Cal/Mol-Kelvin
 Total                   35.277             12.855             65.033
 Electronic               0.000              0.000              1.377
 Translational            0.889              2.981             36.416
 Rotational               0.889              2.981             21.028
 Vibrational             33.500              6.893              6.211
 Vibration     1          0.608              1.937              3.179
 Vibration     2          0.706              1.633              1.305
 Vibration     3          0.707              1.632              1.301
                       Q            Log10(Q)             Ln(Q)
 Total Bot       0.831606D-12        -12.080082        -27.815418
 Total V=0       0.514878D+12         11.711704         26.967196
 Vib (Bot)       0.633747D-23        -23.198084        -53.415562
 Vib (Bot)    1  0.177566D+01          0.249360          0.574172
 Vib (Bot)    2  0.585420D+00         -0.232533         -0.535426
 Vib (Bot)    3  0.583744D+00         -0.233777         -0.538292
 Vib (V=0)       0.392376D+01          0.593703          1.367051
 Vib (V=0)    1  0.234471D+01          0.370090          0.852163
 Vib (V=0)    2  0.126988D+01          0.103763          0.238923
 Vib (V=0)    3  0.126861D+01          0.103327          0.237920
 Electronic      0.200000D+01          0.301030          0.693147
 Translational   0.746273D+07          6.872898         15.825432
 Rotational      0.879172D+04          3.944074          9.081565
 ***** Axes restored to original set *****
 -------------------------------------------------------------------
 Center     Atomic                   Forces (Hartrees/Bohr)
 Number     Number              X              Y              Z
 -------------------------------------------------------------------
      1        6           0.000001672    0.000001766   -0.000000185
      2        1           0.000000000    0.000001775   -0.000002308
      3        1           0.000002295   -0.000003280   -0.000001918
      4        1           0.000001674    0.000000682   -0.000001397
      5        1          -0.000001300   -0.000001305    0.000000188
      6        8          -0.000001751   -0.000001201    0.000002050
      7        1          -0.000002589    0.000001562    0.000003570
 -------------------------------------------------------------------
 Cartesian Forces:  Max     0.000003570 RMS     0.000001869

 GradGradGradGradGradGradGradGradGradGradGradGradGradGradGradGradGradGrad
 Berny optimization.
 Internal  Forces:  Max     0.000002318 RMS     0.000000953
 Search for a saddle point.
 Step number   1 out of a maximum of    2
 All quantities printed in internal units (Hartrees-Bohrs-Radians)
 Swaping is turned off.
 Second derivative matrix not updated -- analytic derivatives used.
 The second derivative matrix:
                          R1        R2        R3        R4        R5
           R1           0.35925
           R2           0.00042   0.35727
           R3           0.00051   0.00043   0.35941
           R4           0.00142   0.00147   0.00142   0.17569
           R5          -0.00011  -0.00019  -0.00011   0.09699   0.00986
           R6          -0.00007  -0.00011  -0.00007   0.00344  -0.00641
           A1           0.00656   0.00662  -0.00364  -0.01314   0.00693
           A2           0.00617  -0.00355   0.00618  -0.01269   0.00571
           A3           0.00247  -0.00674  -0.00630   0.01502  -0.00603
           A4          -0.00364   0.00663   0.00655  -0.01314   0.00692
           A5          -0.00673   0.00280  -0.00673   0.01439  -0.01030
           A6          -0.00630  -0.00674   0.00247   0.01502  -0.00602
           A7           0.00042  -0.00120   0.00043  -0.00095   0.00545
           A8           0.00109  -0.00296   0.00108  -0.00162  -0.00530
           A9          -0.00123   0.00000   0.00123   0.00000   0.00000
           D1           0.00015  -0.00491   0.00500   0.00026   0.00147
           D2           0.00555   0.00000  -0.00555   0.00000   0.00000
           D3          -0.00499   0.00491  -0.00016  -0.00026  -0.00147
                          R6        A1        A2        A3        A4
           R6           0.51653
           A1           0.00108   0.06014
           A2           0.00081  -0.00454   0.05554
           A3          -0.00062  -0.02961  -0.02577   0.08287
           A4           0.00108  -0.00423  -0.00454  -0.00257   0.06015
           A5          -0.00218  -0.02572  -0.00262  -0.00958  -0.02570
           A6          -0.00062  -0.00257  -0.02580  -0.00760  -0.02964
           A7           0.00444  -0.00039   0.00040  -0.00093  -0.00040
           A8           0.00078  -0.00084   0.00714  -0.00126  -0.00083
           A9           0.00000  -0.00322   0.00001  -0.00001   0.00323
           D1           0.00012  -0.02022   0.01928   0.00108  -0.00033
           D2           0.00000   0.01887   0.00001   0.00694  -0.01886
           D3          -0.00012   0.00033  -0.01929  -0.00500   0.02022
                          A5        A6        A7        A8        A9
           A5           0.08148
           A6          -0.00957   0.08292
           A7           0.00232  -0.00093   0.08268
           A8          -0.00395  -0.00127  -0.00575   0.01865
           A9           0.00000   0.00000  -0.00001   0.00001   0.00305
           D1          -0.00550   0.00500   0.00048   0.00129   0.00086
           D2          -0.00001  -0.00694   0.00000   0.00000  -0.00244
           D3           0.00551  -0.00108  -0.00048  -0.00129   0.00086
                          D1        D2        D3
           D1           0.01680
           D2          -0.00796   0.01681
           D3          -0.00832  -0.00797   0.01680
     Eigenvalues ---   -0.04154   0.00049   0.00278   0.01784   0.07016
     Eigenvalues ---    0.07371   0.08324   0.10479   0.10885   0.11444
     Eigenvalues ---    0.22579   0.35812   0.35974   0.36080   0.51669
     Eigenvalues --- 1000.000001000.000001000.00000
 Eigenvectors required to have negative eigenvalues:
                          R5        R4        A5        A8        A4
   1                    0.87977  -0.42303   0.10397   0.07923  -0.07536
                          A1        A3        A6        A2        A7
   1                   -0.07535   0.07423   0.07410  -0.07021  -0.03958
 Angle between quadratic step and forces=  81.07 degrees.
 Linear search not attempted -- option 19 set.
 Iteration  1 RMS(Cart)=  0.00011611 RMS(Int)=  0.00000002
 Iteration  2 RMS(Cart)=  0.00000002 RMS(Int)=  0.00000000
 Variable       Old X    -DE/DX   Delta X   Delta X   Delta X     New X
                                 (Linear)    (Quad)   (Total)
    R1        2.05745   0.00000   0.00000   0.00000   0.00000   2.05745
    R2        2.05855   0.00000   0.00000   0.00000   0.00000   2.05855
    R3        2.05745   0.00000   0.00000   0.00000   0.00000   2.05745
    R4        2.25725   0.00000   0.00000  -0.00001  -0.00001   2.25724
    R5        2.53737   0.00000   0.00000   0.00002   0.00002   2.53739
    R6        1.83964   0.00000   0.00000   0.00000   0.00000   1.83964
    A1        1.95971   0.00000   0.00000   0.00000   0.00000   1.95971
    A2        1.96635   0.00000   0.00000   0.00000   0.00000   1.96634
    A3        1.87354   0.00000   0.00000   0.00004   0.00004   1.87358
    A4        1.95968   0.00000   0.00000   0.00001   0.00001   1.95968
    A5        1.82046   0.00000   0.00000  -0.00002  -0.00002   1.82044
    A6        1.87370   0.00000   0.00000  -0.00003  -0.00003   1.87368
    A7        1.73421   0.00000   0.00000  -0.00002  -0.00002   1.73419
    A8        3.29040   0.00000   0.00000  -0.00005  -0.00005   3.29035
    A9        3.14187   0.00000   0.00000  -0.00005  -0.00005   3.14182
    D1        1.04081   0.00000   0.00000  -0.00037  -0.00037   1.04044
    D2       -3.14004   0.00000   0.00000  -0.00037  -0.00037  -3.14040
    D3       -1.03771   0.00000   0.00000  -0.00038  -0.00038  -1.03810
         Item               Value     Threshold  Converged?
 Maximum Force            0.000002     0.000450     YES
 RMS     Force            0.000001     0.000300     YES
 Maximum Displacement     0.000299     0.001800     YES
 RMS     Displacement     0.000116     0.001200     YES
 Predicted change in Energy=-2.053132D-10
 Optimization completed.
    -- Stationary point found.
                           ----------------------------
                           !   Optimized Parameters   !
                           ! (Angstroms and Degrees)  !
 --------------------------                            --------------------------
 ! Name  Definition              Value          Derivative Info.                !
 --------------------------------------------------------------------------------
 ! R1    R(1,2)                  1.0888         -DE/DX =    0.0                 !
 ! R2    R(1,3)                  1.0893         -DE/DX =    0.0                 !
 ! R3    R(1,4)                  1.0888         -DE/DX =    0.0                 !
 ! R4    R(1,5)                  1.1945         -DE/DX =    0.0                 !
 ! R5    R(5,6)                  1.3427         -DE/DX =    0.0                 !
 ! R6    R(6,7)                  0.9735         -DE/DX =    0.0                 !
 ! A1    A(2,1,3)              112.2832         -DE/DX =    0.0                 !
 ! A2    A(2,1,4)              112.6634         -DE/DX =    0.0                 !
 ! A3    A(2,1,5)              107.3461         -DE/DX =    0.0                 !
 ! A4    A(3,1,4)              112.2812         -DE/DX =    0.0                 !
 ! A5    A(3,1,5)              104.3044         -DE/DX =    0.0                 !
 ! A6    A(4,1,5)              107.3552         -DE/DX =    0.0                 !
 ! A7    A(5,6,7)               99.3629         -DE/DX =    0.0                 !
 ! A8    L(1,5,6,3,-1)         188.5262         -DE/DX =    0.0                 !
 ! A9    L(1,5,6,3,-2)         180.0157         -DE/DX =    0.0                 !
 ! D1    D(2,1,6,7)             59.6339         -DE/DX =    0.0                 !
 ! D2    D(3,1,6,7)           -179.9108         -DE/DX =    0.0                 !
 ! D3    D(4,1,6,7)            -59.4565         -DE/DX =    0.0                 !
 --------------------------------------------------------------------------------
 GradGradGradGradGradGradGradGradGradGradGradGradGradGradGradGradGradGrad

 1|1|UNPC-DESKTOP-319GPER|Freq|UM062X|6-31+G(d,p)|C1H5O1(2)|SAGAD|05-Oc
 t-2020|0||#N Geom=AllCheck Guess=TCheck SCRF=Check GenChk UM062X/6-31+
 G(d,p) Freq||Estado de transcion M062X||0,2|C,0.7397938757,1.761935044
 7,-0.8661584449|H,1.1346286339,2.1959746478,0.0509604252|H,1.102139511
 8,2.2758011098,-1.7557136|H,-0.3451824117,1.672015126,-0.8545322338|H,
 1.1877861986,0.6585919268,-0.9596310657|O,1.5982953409,-0.6180375603,-
 0.8918900114|H,1.1751846957,-0.8762056645,-0.054022124||Version=IA32W-
 G09RevA.02|State=2-A|HF=-116.1803163|S2=0.758831|S2-1=0.|S2A=0.750037|
 RMSD=3.179e-010|RMSF=1.869e-006|ZeroPoint=0.051725|Thermal=0.0562179|D
 ipole=-0.4770643,0.3889659,0.5525674|DipoleDeriv=0.0951444,-0.3120495,
 0.0097587,-0.2735785,0.7767503,-0.0077374,-0.0123996,0.0548551,-0.0210
 43,0.0383249,0.0394772,-0.0459332,0.0163658,-0.0707805,-0.0507768,-0.0
 542314,-0.0333527,-0.0344408,0.0454416,0.0472452,0.0347002,0.0147686,-
 0.0699867,0.0646492,0.0535051,0.0115724,-0.010683,-0.0854774,0.0089068
 ,0.0006817,0.0369437,-0.0587908,0.0051596,0.0060447,-0.0040094,0.07723
 09,-0.0035414,0.4262673,-0.0037999,0.4345042,-1.1314127,0.0284216,-0.0
 085722,0.0418922,0.1348957,-0.3770546,-0.2378006,-0.093778,-0.1985653,
 0.1540649,-0.0646715,-0.116387,-0.0008245,-0.3288498,0.2871626,0.02795
 36,0.0983704,-0.0304384,0.4001554,0.0249552,0.1320406,-0.0701331,0.182
 89|Polar=21.4085756,-7.2872681,41.092985,-0.1296502,-1.0163687,19.5465
 504|PG=C01 [X(C1H5O1)]|NImag=1||0.54331187,0.09039847,0.33633257,0.004
 21627,-0.00800734,0.57554794,-0.08382200,-0.04746844,-0.08608873,0.084
 56151,-0.05040485,-0.08185263,-0.10144487,0.04925003,0.08748324,-0.087
 75404,-0.09665691,-0.25422618,0.09562688,0.10579372,0.26844676,-0.0769
 5478,-0.05105119,0.07534709,0.00452988,0.00656675,-0.00961302,0.077519
 89,-0.05401033,-0.09853526,0.11695441,0.00542594,0.00791386,-0.0121348
 7,0.05277873,0.10632246,0.07705932,0.11211362,-0.23976003,0.00918323,0
 .01378008,-0.01643898,-0.08434641,-0.12194932,0.25302463,-0.33603831,-
 0.02926531,0.00301947,-0.00675543,0.00066947,0.00220534,-0.00627505,0.
 00098692,-0.00196759,0.35688398,-0.02340484,-0.03427551,0.00124472,-0.
 01303132,-0.00007928,0.00156150,-0.01529784,-0.00004409,-0.00120693,0.
 02810649,0.03841141,0.00299531,0.00123327,-0.04979495,-0.02662730,-0.0
 0026607,0.00316971,0.02559116,-0.00004468,0.00231915,-0.00336280,-0.00
 116723,0.04540403,-0.03434041,0.00479292,0.00037452,0.00075261,-0.0047
 2897,-0.00111062,0.00030009,-0.00340474,0.00135417,-0.00862447,0.02457
 930,0.00168122,0.03774549,-0.00413918,-0.02014332,-0.00034787,0.008492
 46,-0.01807084,0.00216046,0.01062290,-0.02207067,-0.00463230,-0.000137
 82,-0.00956226,-0.00010309,0.01201967,-0.00588643,0.00552947,-0.014906
 27,-0.03281244,0.00716120,-0.01709651,-0.00174762,-0.00676235,0.018289
 26,0.00038915,0.00006566,0.00035649,-0.00087091,-0.00863477,0.00500911
 ,0.04787808,-0.01334814,0.03515151,0.00507925,0.00059081,-0.00083702,0
 .00068697,0.00164282,-0.00237880,-0.00157689,0.00127750,-0.00179581,-0
 .00002287,0.00254129,-0.03289473,0.00546417,0.10977651,0.04232022,-0.0
 9990156,-0.01004640,-0.00222142,0.00464160,-0.00055494,-0.00391918,0.0
 0641170,0.00259989,-0.00041834,0.00484762,0.00015151,-0.02691257,0.077
 47983,-0.00416311,0.04733987,0.06210733,0.00093579,0.00164482,-0.00026
 101,0.00050278,0.00022674,0.00069331,-0.00068209,0.00007853,0.00090713
 ,0.00016401,-0.00063445,-0.00020476,0.00201807,0.00556662,-0.01224782,
 -0.20054060,-0.11094430,0.39392738,0.00119176,-0.00255795,-0.00194787,
 0.00014262,-0.00051541,-0.00004151,-0.00076286,0.00060227,0.00029416,-
 0.00046822,0.00084401,-0.00025472,0.00162540,0.00603669,-0.00282338,-0
 .10248080,-0.05618859,0.19760203,0.10075209,-0.00075950,-0.00162429,0.
 00164734,-0.00044726,-0.00003595,-0.00016896,0.00029982,0.00000200,-0.
 00070504,0.00005859,0.00070210,0.00019629,-0.00634562,-0.00174631,0.01
 251104,-0.04458502,-0.05558651,0.10406205,0.05177898,0.05828896,-0.002
 98212,0.00457882,0.00130666,0.00024194,-0.00099309,0.00010299,0.000465
 60,-0.00119331,-0.00044106,-0.00012409,-0.00015410,-0.00002227,0.00431
 741,-0.00765293,-0.00058845,0.19090997,0.12295734,-0.38281423,-0.19282
 871,-0.11754273,0.38245636||-0.00000167,-0.00000177,0.00000019,0.,-0.0
 0000178,0.00000231,-0.00000229,0.00000328,0.00000192,-0.00000167,-0.00
 000068,0.00000140,0.00000130,0.00000131,-0.00000019,0.00000175,0.00000
 120,-0.00000205,0.00000259,-0.00000156,-0.00000357|||@


 THE CHYMISTS ARE A STRANGE CLASS OF MORTALS IMPELLED
 BY AN ALMOST INSANE IMPULSE TO SEEK THEIR PLEASURE
 AMONG SMOKE AND VAPOR, SOOT AND FLAME, POISONS AND
 POVERTY; YET AMONG ALL THESE EVILS I SEEM TO LIVE
 SO SWEETLY, THAT I MAY DIE IF I WOULD CHANGE PLACES
 WITH THE PERSIAN KING.
   --  JOHANN JOACHIM BECHER, 1635-1682
 ACTA LABORATORII CHYMICA MONACENSIS, 1669
 Job cpu time:  0 days  0 hours  0 minutes 27.0 seconds.
 File lengths (MBytes):  RWF=     10 Int=      0 D2E=      0 Chk=      1 Scr=      1
 Normal termination of Gaussian 09 at Mon Oct 05 12:46:53 2020.
