 Entering Link 1 = C:\G09W\l1.exe PID=     13296.
  
 Copyright (c) 1988,1990,1992,1993,1995,1998,2003,2009, Gaussian, Inc.
                  All Rights Reserved.
  
 This is part of the Gaussian(R) 09 program.  It is based on
 the Gaussian(R) 03 system (copyright 2003, Gaussian, Inc.),
 the Gaussian(R) 98 system (copyright 1998, Gaussian, Inc.),
 the Gaussian(R) 94 system (copyright 1995, Gaussian, Inc.),
 the Gaussian 92(TM) system (copyright 1992, Gaussian, Inc.),
 the Gaussian 90(TM) system (copyright 1990, Gaussian, Inc.),
 the Gaussian 88(TM) system (copyright 1988, Gaussian, Inc.),
 the Gaussian 86(TM) system (copyright 1986, Carnegie Mellon
 University), and the Gaussian 82(TM) system (copyright 1983,
 Carnegie Mellon University). Gaussian is a federally registered
 trademark of Gaussian, Inc.
  
 This software contains proprietary and confidential information,
 including trade secrets, belonging to Gaussian, Inc.
  
 This software is provided under written license and may be
 used, copied, transmitted, or stored only in accord with that
 written license.
  
 The following legend is applicable only to US Government
 contracts under FAR:
  
                    RESTRICTED RIGHTS LEGEND
  
 Use, reproduction and disclosure by the US Government is
 subject to restrictions as set forth in subparagraphs (a)
 and (c) of the Commercial Computer Software - Restricted
 Rights clause in FAR 52.227-19.
  
 Gaussian, Inc.
 340 Quinnipiac St., Bldg. 40, Wallingford CT 06492
  
  
 ---------------------------------------------------------------
 Warning -- This program may not be used in any manner that
 competes with the business of Gaussian, Inc. or will provide
 assistance to any competitor of Gaussian, Inc.  The licensee
 of this program is prohibited from giving any competitor of
 Gaussian, Inc. access to this program.  By using this program,
 the user acknowledges that Gaussian, Inc. is engaged in the
 business of creating and licensing software in the field of
 computational chemistry and represents and warrants to the
 licensee that it is not a competitor of Gaussian, Inc. and that
 it will not use this program in any manner prohibited above.
 ---------------------------------------------------------------
  

 Cite this work as:
 Gaussian 09, Revision A.02,
 M. J. Frisch, G. W. Trucks, H. B. Schlegel, G. E. Scuseria, 
 M. A. Robb, J. R. Cheeseman, G. Scalmani, V. Barone, B. Mennucci, 
 G. A. Petersson, H. Nakatsuji, M. Caricato, X. Li, H. P. Hratchian, 
 A. F. Izmaylov, J. Bloino, G. Zheng, J. L. Sonnenberg, M. Hada, 
 M. Ehara, K. Toyota, R. Fukuda, J. Hasegawa, M. Ishida, T. Nakajima, 
 Y. Honda, O. Kitao, H. Nakai, T. Vreven, J. A. Montgomery, Jr., 
 J. E. Peralta, F. Ogliaro, M. Bearpark, J. J. Heyd, E. Brothers, 
 K. N. Kudin, V. N. Staroverov, R. Kobayashi, J. Normand, 
 K. Raghavachari, A. Rendell, J. C. Burant, S. S. Iyengar, J. Tomasi, 
 M. Cossi, N. Rega, J. M. Millam, M. Klene, J. E. Knox, J. B. Cross, 
 V. Bakken, C. Adamo, J. Jaramillo, R. Gomperts, R. E. Stratmann, 
 O. Yazyev, A. J. Austin, R. Cammi, C. Pomelli, J. W. Ochterski, 
 R. L. Martin, K. Morokuma, V. G. Zakrzewski, G. A. Voth, 
 P. Salvador, J. J. Dannenberg, S. Dapprich, A. D. Daniels, 
 O. Farkas, J. B. Foresman, J. V. Ortiz, J. Cioslowski, 
 and D. J. Fox, Gaussian, Inc., Wallingford CT, 2009.
 
 ******************************************
 Gaussian 09:  IA32W-G09RevA.02 11-Jun-2009
                08-Feb-2021 
 ******************************************
 %chk=D:\Documents\rayGit\FQ\quimicaComputacional\proyecto\decompositionHydrogenP
 eroxide\descompositionByRadicals\gasPhase\step4\ts\tsm062x.chk
 %mem=1500MB
 %nprocshared=4
 Will use up to    4 processors via shared memory.
 ----------------------------------------------------------------------
 # opt=(calcfc,ts,noeigen,maxcycles=100) freq=noraman 6-31+g(d,p) m062x
 ----------------------------------------------------------------------
 1/5=1,6=100,10=4,11=1,14=-1,18=20,26=3,38=1/1,3;
 2/9=110,12=2,17=6,18=5,40=1/2;
 3/5=1,6=6,7=111,11=2,16=1,25=1,30=1,71=2,74=-55/1,2,3;
 4//1;
 5/5=2,38=5/2;
 8/6=4,10=90,11=11/1;
 11/6=1,8=1,9=11,15=111,16=1/1,2,10;
 10/6=1,7=6,13=1/2;
 6/7=2,8=2,9=2,10=2,28=1/1;
 7/10=1,18=20,25=1/1,2,3,16;
 1/5=1,6=100,10=4,11=1,14=-1,18=20/3(2);
 2/9=110/2;
 99//99;
 2/9=110/2;
 3/5=1,6=6,7=111,11=2,16=1,25=1,30=1,71=1,74=-55/1,2,3;
 4/5=5,16=3/1;
 5/5=2,38=5/2;
 7//1,2,3,16;
 1/5=1,6=100,11=1,14=-1,18=20/3(-5);
 2/9=110/2;
 6/7=2,8=2,9=2,10=2,19=2,28=1/1;
 99/9=1/99;
 ---
 ts2
 ---
 Symbolic Z-matrix:
 Charge =  0 Multiplicity = 1
 O                    -1.20732   0.34506   0. 
 H                    -1.64127   1.5705    0. 
 O                     0.11268   0.34506   0. 
 O                    -2.07522   2.79593   0. 
 H                    -1.32886   3.3997    0. 
 

 GradGradGradGradGradGradGradGradGradGradGradGradGradGradGradGradGradGrad
 Berny optimization.
 Initialization pass.
                           ----------------------------
                           !    Initial Parameters    !
                           ! (Angstroms and Degrees)  !
 --------------------------                            --------------------------
 ! Name  Definition              Value          Derivative Info.                !
 --------------------------------------------------------------------------------
 ! R1    R(1,2)                  1.3            calculate D2E/DX2 analytically  !
 ! R2    R(1,3)                  1.32           calculate D2E/DX2 analytically  !
 ! R3    R(2,4)                  1.3            calculate D2E/DX2 analytically  !
 ! R4    R(4,5)                  0.96           calculate D2E/DX2 analytically  !
 ! A1    A(2,1,3)              109.5            calculate D2E/DX2 analytically  !
 ! A2    A(2,4,5)              109.4712         calculate D2E/DX2 analytically  !
 ! A3    L(1,2,4,3,-1)         180.0            calculate D2E/DX2 analytically  !
 ! A4    L(1,2,4,3,-2)         180.0            calculate D2E/DX2 analytically  !
 ! D1    D(3,1,4,5)              0.0            calculate D2E/DX2 analytically  !
 --------------------------------------------------------------------------------
 Trust Radius=3.00D-01 FncErr=1.00D-07 GrdErr=1.00D-06
 Number of steps in this run= 100 maximum allowed number of steps= 100.
 Search for a saddle point of order  1.
 GradGradGradGradGradGradGradGradGradGradGradGradGradGradGradGradGradGrad

                          Input orientation:                          
 ---------------------------------------------------------------------
 Center     Atomic      Atomic             Coordinates (Angstroms)
 Number     Number       Type             X           Y           Z
 ---------------------------------------------------------------------
      1          8           0       -1.207323    0.345064    0.000000
      2          1           0       -1.641272    1.570498    0.000000
      3          8           0        0.112677    0.345064    0.000000
      4          8           0       -2.075221    2.795932    0.000000
      5          1           0       -1.328858    3.399705    0.000000
 ---------------------------------------------------------------------
                    Distance matrix (angstroms):
                    1          2          3          4          5
     1  O    0.000000
     2  H    1.300000   0.000000
     3  O    1.320000   2.139632   0.000000
     4  O    2.600000   1.300000   3.285369   0.000000
     5  H    3.057057   1.855694   3.377699   0.960000   0.000000
 Stoichiometry    H2O3
 Framework group  CS[SG(H2O3)]
 Deg. of freedom     7
 Full point group                 CS      NOp   2
 Largest Abelian subgroup         CS      NOp   2
 Largest concise Abelian subgroup C1      NOp   1
                         Standard orientation:                         
 ---------------------------------------------------------------------
 Center     Atomic      Atomic             Coordinates (Angstroms)
 Number     Number       Type             X           Y           Z
 ---------------------------------------------------------------------
      1          8           0       -0.860199   -0.343495    0.000000
      2          1           0        0.000000    0.631214    0.000000
      3          8           0       -0.218820   -1.497199    0.000000
      4          8           0        0.860199    1.605923    0.000000
      5          1           0        1.750560    1.246957    0.000000
 ---------------------------------------------------------------------
 Rotational constants (GHZ):     46.8641411      5.1795368      4.6640543
 Standard basis: 6-31+G(d,p) (6D, 7F)
 There are    50 symmetry adapted basis functions of A'  symmetry.
 There are    17 symmetry adapted basis functions of A"  symmetry.
 Integral buffers will be    262144 words long.
 Raffenetti 2 integral format.
 Two-electron integral symmetry is turned on.
    67 basis functions,   110 primitive gaussians,    67 cartesian basis functions
    13 alpha electrons       13 beta electrons
       nuclear repulsion energy        64.8161541708 Hartrees.
 NAtoms=    5 NActive=    5 NUniq=    5 SFac= 7.50D-01 NAtFMM=   80 NAOKFM=F Big=F
 One-electron integrals computed using PRISM.
 NBasis=    67 RedAO= T  NBF=    50    17
 NBsUse=    67 1.00D-06 NBFU=    50    17
 Harris functional with IExCor= 1009 diagonalized for initial guess.
 ExpMin= 8.45D-02 ExpMax= 5.48D+03 ExpMxC= 8.25D+02 IAcc=2 IRadAn=         0 AccDes= 0.00D+00
 HarFok:  IExCor= 1009 AccDes= 0.00D+00 IRadAn=         0 IDoV= 1
 ScaDFX=  1.000000  1.000000  1.000000  1.000000
 FoFCou: FMM=F IPFlag=           0 FMFlag=      100000 FMFlg1=           0
         NFxFlg=           0 DoJE=T BraDBF=F KetDBF=T FulRan=T
         Omega=  0.000000  0.000000  1.000000  0.000000  0.000000 ICntrl=     500 IOpCl=  0
         NMat0=    1 NMatS0=    1 NMatT0=    0 NMatD0=    1 NMtDS0=    0 NMtDT0=    0
         I1Cent=           4 NGrid=           0.
 Petite list used in FoFCou.
 Initial guess orbital symmetries:
       Occupied  (A') (A') (A') (A') (A') (A') (A') (A') (A') (A")
                 (A') (A") (A')
       Virtual   (A") (A') (A') (A') (A") (A') (A') (A') (A') (A")
                 (A') (A') (A") (A') (A') (A') (A') (A') (A') (A")
                 (A') (A") (A') (A') (A") (A') (A') (A') (A') (A")
                 (A') (A") (A') (A") (A') (A") (A') (A') (A") (A')
                 (A') (A') (A") (A") (A') (A') (A") (A') (A') (A')
                 (A') (A') (A') (A')
 The electronic state of the initial guess is 1-A'.
 Requested convergence on RMS density matrix=1.00D-08 within 128 cycles.
 Requested convergence on MAX density matrix=1.00D-06.
 Requested convergence on             energy=1.00D-06.
 No special actions if energy rises.
 Keep R1 ints in memory in canonical form, NReq=3551239.
 Integral accuracy reduced to 1.0D-05 until final iterations.
 Initial convergence to 1.0D-05 achieved.  Increase integral accuracy.
 SCF Done:  E(RM062X) =  -226.519696629     A.U. after   22 cycles
             Convg  =    0.2379D-08             -V/T =  2.0104
 Range of M.O.s used for correlation:     1    67
 NBasis=    67 NAE=    13 NBE=    13 NFC=     0 NFV=     0
 NROrb=     67 NOA=    13 NOB=    13 NVA=    54 NVB=    54

 **** Warning!!: The largest alpha MO coefficient is  0.13315041D+02

 Symmetrizing basis deriv contribution to polar:
 IMax=3 JMax=2 DiffMx= 0.00D+00
 G2DrvN: will do     6 centers at a time, making    1 passes doing MaxLOS=2.
 Calling FoFCou, ICntrl=  3107 FMM=F I1Cent=   0 AccDes= 0.00D+00.
 FoFDir/FoFCou used for L=0 through L=2.
 End of G2Drv Frequency-dependent properties file   721 does not exist.
 End of G2Drv Frequency-dependent properties file   722 does not exist.
          IDoAtm=11111
          Differentiating once with respect to nuclear coordinates.
          Keep R1 ints in memory in canonical form, NReq=3416970.
          There are    18 degrees of freedom in the 1st order CPHF.  IDoFFX=5.
     12 vectors produced by pass  0 Test12= 3.90D-11 5.56D-07 XBig12= 1.38D-01 2.82D-01.
 AX will form    12 AO Fock derivatives at one time.
     12 vectors produced by pass  1 Test12= 3.90D-11 5.56D-07 XBig12= 1.75D-02 7.17D-02.
     12 vectors produced by pass  2 Test12= 3.90D-11 5.56D-07 XBig12= 2.45D-03 1.20D-02.
     12 vectors produced by pass  3 Test12= 3.90D-11 5.56D-07 XBig12= 3.53D-05 1.22D-03.
     12 vectors produced by pass  4 Test12= 3.90D-11 5.56D-07 XBig12= 4.54D-07 1.13D-04.
      6 vectors produced by pass  5 Test12= 3.90D-11 5.56D-07 XBig12= 2.84D-09 1.00D-05.
      1 vectors produced by pass  6 Test12= 3.90D-11 5.56D-07 XBig12= 1.03D-11 6.89D-07.
 Inverted reduced A of dimension    67 with in-core refinement.
 End of Minotr Frequency-dependent properties file   721 does not exist.
 End of Minotr Frequency-dependent properties file   722 does not exist.

 **********************************************************************

            Population analysis using the SCF density.

 **********************************************************************

 Orbital symmetries:
       Occupied  (A') (A') (A') (A') (A') (A') (A') (A') (A") (A')
                 (A') (A') (A")
       Virtual   (A") (A') (A') (A') (A") (A') (A') (A') (A") (A')
                 (A") (A') (A') (A') (A') (A') (A') (A') (A") (A')
                 (A') (A") (A') (A') (A') (A") (A') (A') (A") (A')
                 (A') (A") (A') (A') (A") (A") (A') (A') (A") (A')
                 (A') (A") (A') (A") (A') (A') (A") (A') (A') (A')
                 (A') (A') (A') (A')
 The electronic state is 1-A'.
 Alpha  occ. eigenvalues --  -19.89567 -19.88803 -19.62107  -1.41231  -1.05984
 Alpha  occ. eigenvalues --   -1.02495  -0.70043  -0.65922  -0.62040  -0.52252
 Alpha  occ. eigenvalues --   -0.45940  -0.38024  -0.34469
 Alpha virt. eigenvalues --   -0.22398   0.04480   0.06560   0.11468   0.12277
 Alpha virt. eigenvalues --    0.16308   0.17000   0.17881   0.19644   0.20134
 Alpha virt. eigenvalues --    0.23098   0.24370   0.27227   0.29119   0.32342
 Alpha virt. eigenvalues --    0.34804   0.98289   1.02038   1.06103   1.07317
 Alpha virt. eigenvalues --    1.09040   1.13246   1.13659   1.20691   1.23137
 Alpha virt. eigenvalues --    1.23177   1.27610   1.31742   1.43032   1.44537
 Alpha virt. eigenvalues --    1.47632   1.50358   1.58320   1.61802   1.63999
 Alpha virt. eigenvalues --    1.74962   1.77964   1.84008   1.87580   2.13433
 Alpha virt. eigenvalues --    2.20934   2.42769   2.46124   2.48824   2.54760
 Alpha virt. eigenvalues --    2.59960   2.71493   2.88393   2.98864   3.35219
 Alpha virt. eigenvalues --    3.58717   3.75682   4.09834   4.13382
          Condensed to atoms (all electrons):
              1          2          3          4          5
     1  O    7.723279  -0.011344   0.337776  -0.047153   0.002009
     2  H   -0.011344   0.345724  -0.002283   0.227793  -0.017412
     3  O    0.337776  -0.002283   7.595650   0.021568  -0.000117
     4  O   -0.047153   0.227793   0.021568   8.384330   0.268444
     5  H    0.002009  -0.017412  -0.000117   0.268444   0.392453
 Mulliken atomic charges:
              1
     1  O   -0.004567
     2  H    0.457522
     3  O    0.047405
     4  O   -0.854983
     5  H    0.354622
 Sum of Mulliken atomic charges =   0.00000
 Mulliken charges with hydrogens summed into heavy atoms:
              1
     1  O    0.452955
     3  O    0.047405
     4  O   -0.500360
 Sum of Mulliken charges with hydrogens summed into heavy atoms =   0.00000
 APT atomic charges:
              1
     1  O   -0.076419
     2  H    0.373833
     3  O    0.135623
     4  O   -0.982342
     5  H    0.549305
 Sum of APT charges=   0.00000
 APT Atomic charges with hydrogens summed into heavy atoms:
              1
     1  O    0.297415
     2  H    0.000000
     3  O    0.135623
     4  O   -0.433038
     5  H    0.000000
 Sum of APT charges=   0.00000
 Electronic spatial extent (au):  <R**2>=            244.9037
 Charge=              0.0000 electrons
 Dipole moment (field-independent basis, Debye):
    X=             -0.4305    Y=             -3.4938    Z=              0.0000  Tot=              3.5202
 Quadrupole moment (field-independent basis, Debye-Ang):
   XX=            -15.1134   YY=            -24.1227   ZZ=            -17.5927
   XY=             -1.6421   XZ=              0.0000   YZ=              0.0000
 Traceless Quadrupole moment (field-independent basis, Debye-Ang):
   XX=              3.8296   YY=             -5.1798   ZZ=              1.3502
   XY=             -1.6421   XZ=              0.0000   YZ=              0.0000
 Octapole moment (field-independent basis, Debye-Ang**2):
  XXX=              6.4773  YYY=            -20.7510  ZZZ=              0.0000  XYY=             -4.3392
  XXY=              1.7240  XXZ=              0.0000  XZZ=             -1.8889  YZZ=             -4.0607
  YYZ=              0.0000  XYZ=              0.0000
 Hexadecapole moment (field-independent basis, Debye-Ang**3):
 XXXX=            -58.7186 YYYY=           -218.0494 ZZZZ=            -15.1314 XXXY=            -30.1649
 XXXZ=              0.0000 YYYX=            -50.2014 YYYZ=              0.0000 ZZZX=              0.0000
 ZZZY=              0.0000 XXYY=            -43.1705 XXZZ=            -15.1940 YYZZ=            -35.3828
 XXYZ=              0.0000 YYXZ=              0.0000 ZZXY=            -13.8889
 N-N= 6.481615417077D+01 E-N=-6.632883628179D+02  KE= 2.241968575174D+02
 Symmetry A'   KE= 2.154467179374D+02
 Symmetry A"   KE= 8.750139580040D+00
  Exact polarizability:   0.000   0.000   0.000   0.000   0.000   0.000
 Approx polarizability:  33.048  16.478  72.667   0.000   0.000  13.822
 Calling FoFJK, ICntrl=    100147 FMM=F ISym2X=1 I1Cent= 0 IOpClX= 0 NMat=1 NMatS=1 NMatT=0.
 ***** Axes restored to original set *****
 -------------------------------------------------------------------
 Center     Atomic                   Forces (Hartrees/Bohr)
 Number     Number              X              Y              Z
 -------------------------------------------------------------------
      1        8           0.137636750   -0.015184061    0.000000000
      2        1          -0.027002176    0.099542180    0.000000000
      3        8          -0.137153213    0.001879144    0.000000000
      4        8           0.021229102   -0.086484370    0.000000000
      5        1           0.005289538    0.000247107    0.000000000
 -------------------------------------------------------------------
 Cartesian Forces:  Max     0.137636750 RMS     0.061419318

 GradGradGradGradGradGradGradGradGradGradGradGradGradGradGradGradGradGrad
 Berny optimization.
 Internal  Forces:  Max     0.137052434 RMS     0.054934501
 Search for a saddle point.
 Step number   1 out of a maximum of  100
 All quantities printed in internal units (Hartrees-Bohrs-Radians)
 Swaping is turned off.
 Second derivative matrix not updated -- analytic derivatives used.
 The second derivative matrix:
                          R1        R2        R3        R4        A1
           R1           0.02675
           R2           0.04398   0.33088
           R3           0.07990  -0.01441   0.03470
           R4           0.00295  -0.00443  -0.00495   0.56863
           A1          -0.00354   0.01513   0.00445  -0.00029   0.07956
           A2           0.02294  -0.00082   0.00821   0.01456   0.00551
           A3           0.00487  -0.00547   0.00420  -0.00015  -0.01348
           A4           0.00000   0.00000   0.00000   0.00000   0.00000
           D1           0.00000   0.00000   0.00000   0.00000   0.00000
                          A2        A3        A4        D1
           A2           0.09119
           A3          -0.00588   0.02442
           A4           0.00000   0.00000  -0.01587
           D1           0.00000   0.00000   0.00059   0.00660
     Eigenvalues ---   -0.05521  -0.01589   0.00661   0.02025   0.07388
     Eigenvalues ---    0.08637   0.12364   0.33802   0.56920
 Eigenvectors required to have negative eigenvalues:
                          R1        R3        R2        A2        A1
   1                    0.73275  -0.66410  -0.11089  -0.08010   0.05550
                          A3        R4        A4        D1
   1                   -0.01394  -0.00763   0.00000   0.00000
 RFO step:  Lambda0=6.121661099D-02 Lambda=-5.88935826D-02.
 Linear search not attempted -- option 19 set.
 Maximum step size (   0.300) exceeded in Quadratic search.
    -- Step size scaled by   0.264
 Iteration  1 RMS(Cart)=  0.07687821 RMS(Int)=  0.00317879
 Iteration  2 RMS(Cart)=  0.00364299 RMS(Int)=  0.00001059
 Iteration  3 RMS(Cart)=  0.00000907 RMS(Int)=  0.00000000
 Iteration  4 RMS(Cart)=  0.00000000 RMS(Int)=  0.00000000
 ClnCor:  largest displacement from symmetrization is 9.35D-02 for atom     2.
 Variable       Old X    -DE/DX   Delta X   Delta X   Delta X     New X
                                 (Linear)    (Quad)   (Total)
    R1        2.45664   0.01267   0.00000  -0.20186  -0.20655   2.25010
    R2        2.49444  -0.13705   0.00000  -0.05974  -0.06038   2.43406
    R3        2.45664  -0.09014   0.00000   0.06950   0.06596   2.52260
    R4        1.81414   0.00416   0.00000   0.00239   0.00205   1.81619
    A1        1.91114  -0.00494   0.00000  -0.01865  -0.01631   1.89483
    A2        1.91063  -0.00555   0.00000   0.03051   0.03223   1.94286
    A3        3.14159   0.00430   0.00000   0.02098   0.02482   3.16641
    A4        3.14159   0.00000   0.00000  -0.19774   0.00000   3.14159
    D1        0.00000   0.00000   0.00000   0.00516   0.00000   0.00000
         Item               Value     Threshold  Converged?
 Maximum Force            0.137052     0.000450     NO 
 RMS     Force            0.054935     0.000300     NO 
 Maximum Displacement     0.105600     0.001800     NO 
 RMS     Displacement     0.067579     0.001200     NO 
 Predicted change in Energy= 9.564450D-04
 GradGradGradGradGradGradGradGradGradGradGradGradGradGradGradGradGradGrad

                          Input orientation:                          
 ---------------------------------------------------------------------
 Center     Atomic      Atomic             Coordinates (Angstroms)
 Number     Number       Type             X           Y           Z
 ---------------------------------------------------------------------
      1          8           0       -1.221943    0.385325    0.000000
      2          1           0       -1.599387    1.514617    0.000000
      3          8           0        0.066103    0.383430    0.000000
      4          8           0       -2.053836    2.769784    0.000000
      5          1           0       -1.330934    3.403108    0.000000
 ---------------------------------------------------------------------
                    Distance matrix (angstroms):
                    1          2          3          4          5
     1  O    0.000000
     2  H    1.190699   0.000000
     3  O    1.288048   2.013316   0.000000
     4  O    2.525409   1.334903   3.191994   0.000000
     5  H    3.019750   1.907476   3.327186   0.961086   0.000000
 Stoichiometry    H2O3
 Framework group  CS[SG(H2O3)]
 Deg. of freedom     7
 Full point group                 CS      NOp   2
 Largest Abelian subgroup         CS      NOp   2
 Largest concise Abelian subgroup C1      NOp   1
                         Standard orientation:                         
 ---------------------------------------------------------------------
 Center     Atomic      Atomic             Coordinates (Angstroms)
 Number     Number       Type             X           Y           Z
 ---------------------------------------------------------------------
      1          8           0       -0.858625   -0.272569    0.000000
      2          1           0        0.000000    0.552371    0.000000
      3          8           0       -0.308406   -1.437183    0.000000
      4          8           0        0.939362    1.500826    0.000000
      5          1           0        1.821361    1.119037    0.000000
 ---------------------------------------------------------------------
 Rotational constants (GHZ):     48.9061976      5.4848830      4.9317787
 Standard basis: 6-31+G(d,p) (6D, 7F)
 There are    50 symmetry adapted basis functions of A'  symmetry.
 There are    17 symmetry adapted basis functions of A"  symmetry.
 Integral buffers will be    262144 words long.
 Raffenetti 2 integral format.
 Two-electron integral symmetry is turned on.
    67 basis functions,   110 primitive gaussians,    67 cartesian basis functions
    13 alpha electrons       13 beta electrons
       nuclear repulsion energy        66.5002498289 Hartrees.
 NAtoms=    5 NActive=    5 NUniq=    5 SFac= 7.50D-01 NAtFMM=   80 NAOKFM=F Big=F
 One-electron integrals computed using PRISM.
 NBasis=    67 RedAO= T  NBF=    50    17
 NBsUse=    67 1.00D-06 NBFU=    50    17
 Initial guess read from the read-write file.
 B after Tr=     0.000000    0.000000    0.000000
         Rot=    1.000000    0.000000    0.000000    0.000000 Ang=   0.00 deg.
 Initial guess orbital symmetries:
       Occupied  (A') (A') (A') (A') (A') (A') (A') (A') (A") (A')
                 (A') (A') (A")
       Virtual   (A") (A') (A') (A') (A") (A') (A') (A') (A") (A')
                 (A") (A') (A') (A') (A') (A') (A') (A') (A") (A')
                 (A') (A") (A') (A') (A') (A") (A') (A') (A") (A')
                 (A') (A") (A') (A') (A") (A") (A') (A') (A") (A')
                 (A') (A") (A') (A") (A') (A') (A") (A') (A') (A')
                 (A') (A') (A') (A')
 Harris functional with IExCor= 1009 diagonalized for initial guess.
 ExpMin= 8.45D-02 ExpMax= 5.48D+03 ExpMxC= 8.25D+02 IAcc=2 IRadAn=         0 AccDes= 0.00D+00
 HarFok:  IExCor= 1009 AccDes= 0.00D+00 IRadAn=         0 IDoV= 1
 ScaDFX=  1.000000  1.000000  1.000000  1.000000
 FoFCou: FMM=F IPFlag=           0 FMFlag=      100000 FMFlg1=           0
         NFxFlg=           0 DoJE=T BraDBF=F KetDBF=T FulRan=T
         Omega=  0.000000  0.000000  1.000000  0.000000  0.000000 ICntrl=     500 IOpCl=  0
         NMat0=    1 NMatS0=    1 NMatT0=    0 NMatD0=    1 NMtDS0=    0 NMtDT0=    0
         I1Cent=           4 NGrid=           0.
 Petite list used in FoFCou.
 Requested convergence on RMS density matrix=1.00D-08 within 128 cycles.
 Requested convergence on MAX density matrix=1.00D-06.
 Requested convergence on             energy=1.00D-06.
 No special actions if energy rises.
 Keep R1 ints in memory in canonical form, NReq=3551093.
 Integral accuracy reduced to 1.0D-05 until final iterations.
 Initial convergence to 1.0D-05 achieved.  Increase integral accuracy.
 SCF Done:  E(RM062X) =  -226.518593344     A.U. after   19 cycles
             Convg  =    0.1615D-08             -V/T =  2.0097
 Calling FoFJK, ICntrl=      2127 FMM=F ISym2X=1 I1Cent= 0 IOpClX= 0 NMat=1 NMatS=1 NMatT=0.
 ***** Axes restored to original set *****
 -------------------------------------------------------------------
 Center     Atomic                   Forces (Hartrees/Bohr)
 Number     Number              X              Y              Z
 -------------------------------------------------------------------
      1        8           0.104598283   -0.018652626    0.000000000
      2        1          -0.025688968    0.087673822    0.000000000
      3        8          -0.101645593    0.001414641    0.000000000
      4        8           0.018949198   -0.071271559    0.000000000
      5        1           0.003787080    0.000835722    0.000000000
 -------------------------------------------------------------------
 Cartesian Forces:  Max     0.104598283 RMS     0.048595555

 GradGradGradGradGradGradGradGradGradGradGradGradGradGradGradGradGradGrad
 Berny optimization.
 Internal  Forces:  Max     0.101665109 RMS     0.042358430
 Search for a saddle point.
 Step number   2 out of a maximum of  100
 All quantities printed in internal units (Hartrees-Bohrs-Radians)
 Swaping is turned off.
 Update second derivatives using D2CorX and points    1    2
 The second derivative matrix:
                          R1        R2        R3        R4        A1
           R1           0.03741
           R2           0.06365   0.34648
           R3           0.09211  -0.01139   0.03028
           R4           0.00383  -0.00404  -0.00510   0.56863
           A1          -0.00132   0.01750   0.00537  -0.00021   0.07988
           A2           0.02575  -0.00123   0.00615   0.01446   0.00563
           A3           0.00080  -0.00949   0.00282  -0.00028  -0.01404
           A4           0.00000   0.00000   0.00000   0.00000   0.00000
           D1           0.00000   0.00000   0.00000   0.00000   0.00000
                          A2        A3        A4        D1
           A2           0.09042
           A3          -0.00601   0.02539
           A4           0.00000   0.00000  -0.01587
           D1           0.00000   0.00000   0.00059   0.00660
     Eigenvalues ---   -0.06681  -0.01589   0.00661   0.02130   0.07547
     Eigenvalues ---    0.08669   0.13207   0.36058   0.56919
 Eigenvectors required to have negative eigenvalues:
                          R1        R3        R2        A2        A1
   1                    0.70878  -0.68529  -0.13047  -0.09118   0.05081
                          R4        A3        A4        D1
   1                   -0.00851   0.00315   0.00000   0.00000
 RFO step:  Lambda0=4.993148529D-02 Lambda=-2.98747991D-02.
 Linear search not attempted -- option 19 set.
 Maximum step size (   0.300) exceeded in Quadratic search.
    -- Step size scaled by   0.287
 Iteration  1 RMS(Cart)=  0.06923146 RMS(Int)=  0.00623575
 Iteration  2 RMS(Cart)=  0.00500977 RMS(Int)=  0.00003428
 Iteration  3 RMS(Cart)=  0.00003812 RMS(Int)=  0.00000000
 Iteration  4 RMS(Cart)=  0.00000000 RMS(Int)=  0.00000000
 ClnCor:  largest displacement from symmetrization is 1.02D-01 for atom     2.
          Exceeds limit of 1.00D-01 so symmetrization was rejected.
 Variable       Old X    -DE/DX   Delta X   Delta X   Delta X     New X
                                 (Linear)    (Quad)   (Total)
    R1        2.25010   0.01729   0.00000  -0.18180  -0.18180   2.06830
    R2        2.43406  -0.10167   0.00000  -0.03783  -0.03783   2.39623
    R3        2.52260  -0.07397   0.00000   0.08656   0.08656   2.60916
    R4        1.81619   0.00342   0.00000   0.00257   0.00257   1.81876
    A1        1.89483  -0.00304   0.00000  -0.01634  -0.01634   1.87848
    A2        1.94286  -0.00342   0.00000   0.03808   0.03808   1.98094
    A3        3.16641   0.00304   0.00000   0.00667   0.00667   3.17309
    A4        3.14159   0.00000   0.00000  -0.21500  -0.21500   2.92659
    D1        0.00000   0.00000   0.00000   0.00562   0.00562   0.00562
         Item               Value     Threshold  Converged?
 Maximum Force            0.101665     0.000450     NO 
 RMS     Force            0.042358     0.000300     NO 
 Maximum Displacement     0.109999     0.001800     NO 
 RMS     Displacement     0.071420     0.001200     NO 
 Predicted change in Energy= 5.309528D-03
 GradGradGradGradGradGradGradGradGradGradGradGradGradGradGradGradGradGrad

                          Input orientation:                          
 ---------------------------------------------------------------------
 Center     Atomic      Atomic             Coordinates (Angstroms)
 Number     Number       Type             X           Y           Z
 ---------------------------------------------------------------------
      1          8           0       -1.236026    0.416799   -0.030172
      2          1           0       -1.567796    1.456408    0.053865
      3          8           0        0.031615    0.414513    0.001092
      4          8           0       -2.033659    2.753908   -0.022443
      5          1           0       -1.334130    3.414635   -0.002343
 ---------------------------------------------------------------------
                    Distance matrix (angstroms):
                    1          2          3          4          5
     1  O    0.000000
     2  H    1.094495   0.000000
     3  O    1.268029   1.909567   0.000000
     4  O    2.469485   1.380709   3.120686   0.000000
     5  H    2.999570   1.972920   3.296363   0.962447   0.000000
 Stoichiometry    H2O3
 Framework group  C1[X(H2O3)]
 Deg. of freedom     9
 Full point group                 C1      NOp   1
 Omega: Change in point group or standard orientation.

 Old FWG=CS   [SG(H2O3)]
 New FWG=C01  [X(H2O3)]
 Largest Abelian subgroup         C1      NOp   1
 Largest concise Abelian subgroup C1      NOp   1
                         Standard orientation:                         
 ---------------------------------------------------------------------
 Center     Atomic      Atomic             Coordinates (Angstroms)
 Number     Number       Type             X           Y           Z
 ---------------------------------------------------------------------
      1          8           0        0.661727   -0.584891   -0.005529
      2          1           0       -0.389990   -0.292911    0.075448
      3          8           0        1.356326    0.475956    0.000161
      4          8           0       -1.731478    0.024143   -0.003589
      5          1           0       -1.902612    0.971253   -0.003801
 ---------------------------------------------------------------------
 Rotational constants (GHZ):     50.0386856      5.7347846      5.1457761
 Standard basis: 6-31+G(d,p) (6D, 7F)
 There are    67 symmetry adapted basis functions of A   symmetry.
 Integral buffers will be    262144 words long.
 Raffenetti 2 integral format.
 Two-electron integral symmetry is turned on.
    67 basis functions,   110 primitive gaussians,    67 cartesian basis functions
    13 alpha electrons       13 beta electrons
       nuclear repulsion energy        67.7889363362 Hartrees.
 NAtoms=    5 NActive=    5 NUniq=    5 SFac= 7.50D-01 NAtFMM=   80 NAOKFM=F Big=F
 One-electron integrals computed using PRISM.
 NBasis=    67 RedAO= T  NBF=    67
 NBsUse=    67 1.00D-06 NBFU=    67
 Initial guess read from the read-write file.
 B after Tr=     0.000000    0.000000    0.000000
         Rot=    1.000000    0.000000    0.000000    0.000000 Ang=   0.00 deg.
 Initial guess orbital symmetries:
       Occupied  (A) (A) (A) (A) (A) (A) (A) (A) (A) (A) (A) (A)
                 (A)
       Virtual   (A) (A) (A) (A) (A) (A) (A) (A) (A) (A) (A) (A)
                 (A) (A) (A) (A) (A) (A) (A) (A) (A) (A) (A) (A)
                 (A) (A) (A) (A) (A) (A) (A) (A) (A) (A) (A) (A)
                 (A) (A) (A) (A) (A) (A) (A) (A) (A) (A) (A) (A)
                 (A) (A) (A) (A) (A) (A)
 Harris functional with IExCor= 1009 diagonalized for initial guess.
 ExpMin= 8.45D-02 ExpMax= 5.48D+03 ExpMxC= 8.25D+02 IAcc=2 IRadAn=         0 AccDes= 0.00D+00
 HarFok:  IExCor= 1009 AccDes= 0.00D+00 IRadAn=         0 IDoV= 1
 ScaDFX=  1.000000  1.000000  1.000000  1.000000
 FoFCou: FMM=F IPFlag=           0 FMFlag=      100000 FMFlg1=           0
         NFxFlg=           0 DoJE=T BraDBF=F KetDBF=T FulRan=T
         Omega=  0.000000  0.000000  1.000000  0.000000  0.000000 ICntrl=     500 IOpCl=  0
         NMat0=    1 NMatS0=    1 NMatT0=    0 NMatD0=    1 NMtDS0=    0 NMtDT0=    0
         I1Cent=           4 NGrid=           0.
 Petite list used in FoFCou.
 Requested convergence on RMS density matrix=1.00D-08 within 128 cycles.
 Requested convergence on MAX density matrix=1.00D-06.
 Requested convergence on             energy=1.00D-06.
 No special actions if energy rises.
 Keep R1 ints in memory in canonical form, NReq=3551083.
 Integral accuracy reduced to 1.0D-05 until final iterations.
 Rare condition: small coef for last iteration:  0.000D+00
 Rare condition: small coef for last iteration:  0.000D+00
 Problem detected with inexpensive integrals.
 Switching to full accuracy and repeating last cycle.
 SCF Done:  E(RM062X) =  -226.512838376     A.U. after   33 cycles
             Convg  =    0.9696D-08             -V/T =  2.0091
 Calling FoFJK, ICntrl=      2127 FMM=F ISym2X=0 I1Cent= 0 IOpClX= 0 NMat=1 NMatS=1 NMatT=0.
 ***** Axes restored to original set *****
 -------------------------------------------------------------------
 Center     Atomic                   Forces (Hartrees/Bohr)
 Number     Number              X              Y              Z
 -------------------------------------------------------------------
      1        8           0.078164432   -0.025385600   -0.005255464
      2        1          -0.027072194    0.081711816    0.005022749
      3        8          -0.068359838   -0.001654663   -0.000627715
      4        8           0.013855835   -0.055253670    0.002115593
      5        1           0.003411764    0.000582117   -0.001255164
 -------------------------------------------------------------------
 Cartesian Forces:  Max     0.081711816 RMS     0.038432505

 GradGradGradGradGradGradGradGradGradGradGradGradGradGradGradGradGradGrad
 Berny optimization.
 Internal  Forces:  Max     0.068198297 RMS     0.031306543
 Search for a saddle point.
 Step number   3 out of a maximum of  100
 All quantities printed in internal units (Hartrees-Bohrs-Radians)
 Swaping is turned off.
 Update second derivatives using D2CorX and points    1    2    3
 The second derivative matrix:
                          R1        R2        R3        R4        A1
           R1           0.08642
           R2           0.09076   0.35950
           R3           0.09779  -0.01162   0.02520
           R4           0.00530  -0.00349  -0.00539   0.56864
           A1           0.01800   0.02628   0.00435   0.00011   0.08564
           A2           0.02069  -0.00458   0.00462   0.01424   0.00310
           A3          -0.00363  -0.01177   0.00259  -0.00039  -0.01563
           A4           0.00668   0.00785   0.00785   0.00075   0.00657
           D1           0.00773   0.00316  -0.00100   0.00008   0.00197
                          A2        A3        A4        D1
           A2           0.09079
           A3          -0.00551   0.02577
           A4           0.00050  -0.00102  -0.02453
           D1          -0.00111  -0.00061   0.00396   0.00719
     Eigenvalues ---   -0.05839  -0.02536   0.00764   0.02133   0.08368
     Eigenvalues ---    0.08639   0.14837   0.39176   0.56920
 Eigenvectors required to have negative eigenvalues:
                          R3        R1        R2        A4        D1
   1                    0.75378  -0.61971   0.15549  -0.10520   0.08345
                          A2        A1        A3        R4
   1                    0.06601   0.02641  -0.01961   0.01118
 RFO step:  Lambda0=4.766433754D-02 Lambda=-3.20342417D-02.
 Linear search not attempted -- option 19 set.
 Maximum step size (   0.300) exceeded in Quadratic search.
    -- Step size scaled by   0.289
 Iteration  1 RMS(Cart)=  0.06350556 RMS(Int)=  0.00904070
 Iteration  2 RMS(Cart)=  0.00640131 RMS(Int)=  0.00005561
 Iteration  3 RMS(Cart)=  0.00005839 RMS(Int)=  0.00000000
 Iteration  4 RMS(Cart)=  0.00000000 RMS(Int)=  0.00000000
 Variable       Old X    -DE/DX   Delta X   Delta X   Delta X     New X
                                 (Linear)    (Quad)   (Total)
    R1        2.06830   0.02888   0.00000  -0.10721  -0.10721   1.96109
    R2        2.39623  -0.06820   0.00000  -0.01410  -0.01410   2.38212
    R3        2.60916  -0.05723   0.00000   0.12655   0.12655   2.73571
    R4        1.81876   0.00288   0.00000   0.00362   0.00362   1.82238
    A1        1.87848   0.00364   0.00000   0.03650   0.03650   1.91499
    A2        1.98094  -0.00352   0.00000   0.01316   0.01316   1.99410
    A3        3.17309   0.00128   0.00000  -0.00608  -0.00608   3.16701
    A4        2.92659  -0.00437   0.00000  -0.22803  -0.22803   2.69857
    D1        0.00562   0.00250   0.00000   0.09350   0.09350   0.09911
         Item               Value     Threshold  Converged?
 Maximum Force            0.068198     0.000450     NO 
 RMS     Force            0.031307     0.000300     NO 
 Maximum Displacement     0.104008     0.001800     NO 
 RMS     Displacement     0.067142     0.001200     NO 
 Predicted change in Energy= 6.728611D-03
 GradGradGradGradGradGradGradGradGradGradGradGradGradGradGradGradGradGrad

                          Input orientation:                          
 ---------------------------------------------------------------------
 Center     Atomic      Atomic             Coordinates (Angstroms)
 Number     Number       Type             X           Y           Z
 ---------------------------------------------------------------------
      1          8           0       -1.229231    0.444845   -0.078411
      2          1           0       -1.546906    1.414871    0.108904
      3          8           0        0.026377    0.383024    0.014612
      4          8           0       -2.039875    2.769654   -0.022662
      5          1           0       -1.350362    3.443870   -0.022443
 ---------------------------------------------------------------------
                    Distance matrix (angstroms):
                    1          2          3          4          5
     1  O    0.000000
     2  H    1.037764   0.000000
     3  O    1.260566   1.883831   0.000000
     4  O    2.462719   1.447676   3.157022   0.000000
     5  H    3.001991   2.042724   3.356421   0.964362   0.000000
 Stoichiometry    H2O3
 Framework group  C1[X(H2O3)]
 Deg. of freedom     9
 Full point group                 C1      NOp   1
 Largest Abelian subgroup         C1      NOp   1
 Largest concise Abelian subgroup C1      NOp   1
                         Standard orientation:                         
 ---------------------------------------------------------------------
 Center     Atomic      Atomic             Coordinates (Angstroms)
 Number     Number       Type             X           Y           Z
 ---------------------------------------------------------------------
      1          8           0        0.646017   -0.566126   -0.018535
      2          1           0       -0.339978   -0.291332    0.152511
      3          8           0        1.382798    0.456429    0.005148
      4          8           0       -1.744610    0.025037    0.001897
      5          1           0       -1.933661    0.968620   -0.060590
 ---------------------------------------------------------------------
 Rotational constants (GHZ):     53.2893643      5.6279767      5.0936371
 Standard basis: 6-31+G(d,p) (6D, 7F)
 There are    67 symmetry adapted basis functions of A   symmetry.
 Integral buffers will be    262144 words long.
 Raffenetti 2 integral format.
 Two-electron integral symmetry is turned on.
    67 basis functions,   110 primitive gaussians,    67 cartesian basis functions
    13 alpha electrons       13 beta electrons
       nuclear repulsion energy        67.9177104052 Hartrees.
 NAtoms=    5 NActive=    5 NUniq=    5 SFac= 7.50D-01 NAtFMM=   80 NAOKFM=F Big=F
 One-electron integrals computed using PRISM.
 NBasis=    67 RedAO= T  NBF=    67
 NBsUse=    67 1.00D-06 NBFU=    67
 Initial guess read from the read-write file.
 B after Tr=     0.000000    0.000000    0.000000
         Rot=    1.000000    0.000000    0.000000    0.000000 Ang=   0.00 deg.
 Initial guess orbital symmetries:
       Occupied  (A) (A) (A) (A) (A) (A) (A) (A) (A) (A) (A) (A)
                 (A)
       Virtual   (A) (A) (A) (A) (A) (A) (A) (A) (A) (A) (A) (A)
                 (A) (A) (A) (A) (A) (A) (A) (A) (A) (A) (A) (A)
                 (A) (A) (A) (A) (A) (A) (A) (A) (A) (A) (A) (A)
                 (A) (A) (A) (A) (A) (A) (A) (A) (A) (A) (A) (A)
                 (A) (A) (A) (A) (A) (A)
 Harris functional with IExCor= 1009 diagonalized for initial guess.
 ExpMin= 8.45D-02 ExpMax= 5.48D+03 ExpMxC= 8.25D+02 IAcc=2 IRadAn=         0 AccDes= 0.00D+00
 HarFok:  IExCor= 1009 AccDes= 0.00D+00 IRadAn=         0 IDoV= 1
 ScaDFX=  1.000000  1.000000  1.000000  1.000000
 FoFCou: FMM=F IPFlag=           0 FMFlag=      100000 FMFlg1=           0
         NFxFlg=           0 DoJE=T BraDBF=F KetDBF=T FulRan=T
         Omega=  0.000000  0.000000  1.000000  0.000000  0.000000 ICntrl=     500 IOpCl=  0
         NMat0=    1 NMatS0=    1 NMatT0=    0 NMatD0=    1 NMtDS0=    0 NMtDT0=    0
         I1Cent=           4 NGrid=           0.
 Petite list used in FoFCou.
 Requested convergence on RMS density matrix=1.00D-08 within 128 cycles.
 Requested convergence on MAX density matrix=1.00D-06.
 Requested convergence on             energy=1.00D-06.
 No special actions if energy rises.
 Keep R1 ints in memory in canonical form, NReq=3551083.
 Integral accuracy reduced to 1.0D-05 until final iterations.
 Initial convergence to 1.0D-05 achieved.  Increase integral accuracy.
 SCF Done:  E(RM062X) =  -226.504801860     A.U. after   28 cycles
             Convg  =    0.6635D-08             -V/T =  2.0088
 Calling FoFJK, ICntrl=      2127 FMM=F ISym2X=0 I1Cent= 0 IOpClX= 0 NMat=1 NMatS=1 NMatT=0.
 ***** Axes restored to original set *****
 -------------------------------------------------------------------
 Center     Atomic                   Forces (Hartrees/Bohr)
 Number     Number              X              Y              Z
 -------------------------------------------------------------------
      1        8           0.062144295   -0.037513796   -0.009423823
      2        1          -0.027060816    0.083072906    0.010385103
      3        8          -0.050482876    0.002007273   -0.002560424
      4        8           0.012695267   -0.047521964    0.003016823
      5        1           0.002704129   -0.000044419   -0.001417679
 -------------------------------------------------------------------
 Cartesian Forces:  Max     0.083072906 RMS     0.034733548

 GradGradGradGradGradGradGradGradGradGradGradGradGradGradGradGradGradGrad
 Berny optimization.
 Internal  Forces:  Max     0.050129548 RMS     0.026917888
 Search for a saddle point.
 Step number   4 out of a maximum of  100
 All quantities printed in internal units (Hartrees-Bohrs-Radians)
 Swaping is turned off.
 Update second derivatives using D2CorX and points    2    3    4
 The second derivative matrix:
                          R1        R2        R3        R4        A1
           R1           0.12327
           R2           0.09505   0.35999
           R3           0.08909  -0.01251   0.02504
           R4           0.00498  -0.00352  -0.00537   0.56864
           A1           0.00514   0.02474   0.00780   0.00023   0.08996
           A2           0.01858  -0.00481   0.00485   0.01425   0.00392
           A3          -0.00851  -0.01237   0.00423  -0.00034  -0.01402
           A4           0.02990   0.01035   0.00603   0.00065  -0.00226
           D1           0.00199   0.00256  -0.00104   0.00010   0.00417
                          A2        A3        A4        D1
           A2           0.09087
           A3          -0.00517   0.02631
           A4          -0.00036  -0.00491  -0.01599
           D1          -0.00093   0.00046   0.00264   0.00715
     Eigenvalues ---   -0.04248  -0.01762   0.00735   0.02451   0.08395
     Eigenvalues ---    0.09330   0.15890   0.39813   0.56920
 Eigenvectors required to have negative eigenvalues:
                          R3        R1        A4        R2        A3
   1                    0.72354  -0.54848   0.38043   0.14399  -0.06572
                          A2        A1        D1        R4
   1                    0.05435  -0.05084   0.01542   0.00997
 RFO step:  Lambda0=4.854699832D-02 Lambda=-3.23556235D-02.
 Linear search not attempted -- option 19 set.
 Maximum step size (   0.300) exceeded in Quadratic search.
    -- Step size scaled by   0.277
 Iteration  1 RMS(Cart)=  0.05372323 RMS(Int)=  0.02860418
 Iteration  2 RMS(Cart)=  0.01710207 RMS(Int)=  0.00053050
 Iteration  3 RMS(Cart)=  0.00065475 RMS(Int)=  0.00000035
 Iteration  4 RMS(Cart)=  0.00000029 RMS(Int)=  0.00000000
 Variable       Old X    -DE/DX   Delta X   Delta X   Delta X     New X
                                 (Linear)    (Quad)   (Total)
    R1        1.96109   0.03829   0.00000  -0.07895  -0.07895   1.88214
    R2        2.38212  -0.05013   0.00000  -0.01532  -0.01532   2.36680
    R3        2.73571  -0.04985   0.00000   0.07300   0.07300   2.80871
    R4        1.82238   0.00192   0.00000   0.00191   0.00191   1.82429
    A1        1.91499  -0.00077   0.00000  -0.00715  -0.00715   1.90784
    A2        1.99410  -0.00363   0.00000   0.00729   0.00729   2.00139
    A3        3.16701  -0.00076   0.00000  -0.02618  -0.02618   3.14083
    A4        2.69857  -0.00562   0.00000   0.27735   0.27735   2.97592
    D1        0.09911   0.00268   0.00000   0.02203   0.02203   0.12115
         Item               Value     Threshold  Converged?
 Maximum Force            0.050130     0.000450     NO 
 RMS     Force            0.026918     0.000300     NO 
 Maximum Displacement     0.126076     0.001800     NO 
 RMS     Displacement     0.065112     0.001200     NO 
 Predicted change in Energy= 6.334254D-03
 GradGradGradGradGradGradGradGradGradGradGradGradGradGradGradGradGradGrad

                          Input orientation:                          
 ---------------------------------------------------------------------
 Center     Atomic      Atomic             Coordinates (Angstroms)
 Number     Number       Type             X           Y           Z
 ---------------------------------------------------------------------
      1          8           0       -1.232898    0.436001   -0.044138
      2          1           0       -1.555587    1.374299    0.042187
      3          8           0        0.017882    0.420715    0.018855
      4          8           0       -2.034724    2.780958    0.013081
      5          1           0       -1.334670    3.444291   -0.029986
 ---------------------------------------------------------------------
                    Distance matrix (angstroms):
                    1          2          3          4          5
     1  O    0.000000
     2  H    0.995984   0.000000
     3  O    1.252458   1.840020   0.000000
     4  O    2.478916   1.486307   3.127934   0.000000
     5  H    3.010045   2.082999   3.312672   0.965372   0.000000
 Stoichiometry    H2O3
 Framework group  C1[X(H2O3)]
 Deg. of freedom     9
 Full point group                 C1      NOp   1
 Largest Abelian subgroup         C1      NOp   1
 Largest concise Abelian subgroup C1      NOp   1
                         Standard orientation:                         
 ---------------------------------------------------------------------
 Center     Atomic      Atomic             Coordinates (Angstroms)
 Number     Number       Type             X           Y           Z
 ---------------------------------------------------------------------
      1          8           0       -0.664836   -0.573406    0.014012
      2          1           0        0.299205   -0.333977   -0.058676
      3          8           0       -1.354003    0.472185   -0.006933
      4          8           0        1.741378    0.022096   -0.009114
      5          1           0        1.920485    0.966975    0.074955
 ---------------------------------------------------------------------
 Rotational constants (GHZ):     51.2847457      5.7001672      5.1313669
 Standard basis: 6-31+G(d,p) (6D, 7F)
 There are    67 symmetry adapted basis functions of A   symmetry.
 Integral buffers will be    262144 words long.
 Raffenetti 2 integral format.
 Two-electron integral symmetry is turned on.
    67 basis functions,   110 primitive gaussians,    67 cartesian basis functions
    13 alpha electrons       13 beta electrons
       nuclear repulsion energy        68.2534416234 Hartrees.
 NAtoms=    5 NActive=    5 NUniq=    5 SFac= 7.50D-01 NAtFMM=   80 NAOKFM=F Big=F
 One-electron integrals computed using PRISM.
 NBasis=    67 RedAO= T  NBF=    67
 NBsUse=    67 1.00D-06 NBFU=    67
 Initial guess read from the read-write file.
 B after Tr=     0.000000    0.000000    0.000000
         Rot=    1.000000    0.000000    0.000000    0.000000 Ang=   0.00 deg.
 Initial guess orbital symmetries:
       Occupied  (A) (A) (A) (A) (A) (A) (A) (A) (A) (A) (A) (A)
                 (A)
       Virtual   (A) (A) (A) (A) (A) (A) (A) (A) (A) (A) (A) (A)
                 (A) (A) (A) (A) (A) (A) (A) (A) (A) (A) (A) (A)
                 (A) (A) (A) (A) (A) (A) (A) (A) (A) (A) (A) (A)
                 (A) (A) (A) (A) (A) (A) (A) (A) (A) (A) (A) (A)
                 (A) (A) (A) (A) (A) (A)
 Harris functional with IExCor= 1009 diagonalized for initial guess.
 ExpMin= 8.45D-02 ExpMax= 5.48D+03 ExpMxC= 8.25D+02 IAcc=2 IRadAn=         0 AccDes= 0.00D+00
 HarFok:  IExCor= 1009 AccDes= 0.00D+00 IRadAn=         0 IDoV= 1
 ScaDFX=  1.000000  1.000000  1.000000  1.000000
 FoFCou: FMM=F IPFlag=           0 FMFlag=      100000 FMFlg1=           0
         NFxFlg=           0 DoJE=T BraDBF=F KetDBF=T FulRan=T
         Omega=  0.000000  0.000000  1.000000  0.000000  0.000000 ICntrl=     500 IOpCl=  0
         NMat0=    1 NMatS0=    1 NMatT0=    0 NMatD0=    1 NMtDS0=    0 NMtDT0=    0
         I1Cent=           4 NGrid=           0.
 Petite list used in FoFCou.
 Requested convergence on RMS density matrix=1.00D-08 within 128 cycles.
 Requested convergence on MAX density matrix=1.00D-06.
 Requested convergence on             energy=1.00D-06.
 No special actions if energy rises.
 Keep R1 ints in memory in canonical form, NReq=3551083.
 Integral accuracy reduced to 1.0D-05 until final iterations.
 Initial convergence to 1.0D-05 achieved.  Increase integral accuracy.
 SCF Done:  E(RM062X) =  -226.496756634     A.U. after   33 cycles
             Convg  =    0.1447D-08             -V/T =  2.0085
 Calling FoFJK, ICntrl=      2127 FMM=F ISym2X=0 I1Cent= 0 IOpClX= 0 NMat=1 NMatS=1 NMatT=0.
 ***** Axes restored to original set *****
 -------------------------------------------------------------------
 Center     Atomic                   Forces (Hartrees/Bohr)
 Number     Number              X              Y              Z
 -------------------------------------------------------------------
      1        8           0.053866353   -0.057209351   -0.008509880
      2        1          -0.029704917    0.097306987    0.011071882
      3        8          -0.037193741    0.001336214   -0.000947383
      4        8           0.012465172   -0.041981277   -0.000759536
      5        1           0.000567133    0.000547427   -0.000855084
 -------------------------------------------------------------------
 Cartesian Forces:  Max     0.097306987 RMS     0.036538861

 GradGradGradGradGradGradGradGradGradGradGradGradGradGradGradGradGradGrad
 Berny optimization.
 Internal  Forces:  Max     0.058681977 RMS     0.027367402
 Search for a saddle point.
 Step number   5 out of a maximum of  100
 All quantities printed in internal units (Hartrees-Bohrs-Radians)
 Swaping is turned off.
 Update second derivatives using D2CorX and points    2    3    4    5
 The second derivative matrix:
                          R1        R2        R3        R4        A1
           R1           0.24731
           R2           0.10745   0.36103
           R3           0.08107  -0.01092  -0.00373
           R4           0.00259  -0.00375  -0.00541   0.56868
           A1          -0.00847   0.02348   0.00911   0.00047   0.09272
           A2           0.03024  -0.00296  -0.00333   0.01399   0.00275
           A3           0.00580  -0.01088   0.00440  -0.00060  -0.01503
           A4          -0.01806   0.00596   0.00181   0.00145   0.00374
           D1          -0.01182   0.00206  -0.01172   0.00025   0.00618
                          A2        A3        A4        D1
           A2           0.08982
           A3          -0.00385   0.02780
           A4          -0.00574  -0.00857  -0.00868
           D1          -0.00485  -0.00019   0.00438   0.00381
     Eigenvalues ---   -0.03926  -0.00968   0.00419   0.02532   0.08413
     Eigenvalues ---    0.09632   0.21871   0.42981   0.56921
 Eigenvectors required to have negative eigenvalues:
                          R3        R1        A4        D1        R2
   1                    0.86705  -0.30925  -0.27271   0.19926   0.11520
                          A1        A2        A3        R4
   1                   -0.11121   0.09239  -0.06535   0.00820
 RFO step:  Lambda0=4.184322270D-02 Lambda=-3.40365382D-02.
 Linear search not attempted -- option 19 set.
 Maximum step size (   0.300) exceeded in Quadratic search.
    -- Step size scaled by   0.263
 Iteration  1 RMS(Cart)=  0.07134521 RMS(Int)=  0.01369882
 Iteration  2 RMS(Cart)=  0.00983806 RMS(Int)=  0.00014235
 Iteration  3 RMS(Cart)=  0.00012226 RMS(Int)=  0.00000002
 Iteration  4 RMS(Cart)=  0.00000001 RMS(Int)=  0.00000000
 Variable       Old X    -DE/DX   Delta X   Delta X   Delta X     New X
                                 (Linear)    (Quad)   (Total)
    R1        1.88214   0.05868   0.00000   0.00560   0.00560   1.88773
    R2        2.36680  -0.03710   0.00000  -0.01605  -0.01605   2.35075
    R3        2.80871  -0.04337   0.00000   0.10718   0.10718   2.91589
    R4        1.82429   0.00086   0.00000   0.00171   0.00171   1.82600
    A1        1.90784  -0.00267   0.00000  -0.02977  -0.02977   1.87807
    A2        2.00139  -0.00011   0.00000   0.00618   0.00618   2.00757
    A3        3.14083   0.00224   0.00000  -0.05301  -0.05301   3.08782
    A4        2.97592  -0.00494   0.00000  -0.22666  -0.22666   2.74925
    D1        0.12115   0.00140   0.00000   0.15202   0.15202   0.27317
         Item               Value     Threshold  Converged?
 Maximum Force            0.058682     0.000450     NO 
 RMS     Force            0.027367     0.000300     NO 
 Maximum Displacement     0.125948     0.001800     NO 
 RMS     Displacement     0.074211     0.001200     NO 
 Predicted change in Energy= 1.886826D-03
 GradGradGradGradGradGradGradGradGradGradGradGradGradGradGradGradGradGrad

                          Input orientation:                          
 ---------------------------------------------------------------------
 Center     Atomic      Atomic             Coordinates (Angstroms)
 Number     Number       Type             X           Y           Z
 ---------------------------------------------------------------------
      1          8           0       -1.223401    0.421299   -0.110786
      2          1           0       -1.574871    1.331985    0.101371
      3          8           0        0.010923    0.449566    0.041162
      4          8           0       -2.032732    2.803794    0.030219
      5          1           0       -1.319916    3.449619   -0.061966
 ---------------------------------------------------------------------
                    Distance matrix (angstroms):
                    1          2          3          4          5
     1  O    0.000000
     2  H    0.998945   0.000000
     3  O    1.243963   1.815773   0.000000
     4  O    2.520155   1.543023   3.117537   0.000000
     5  H    3.030251   2.139171   3.283609   0.966279   0.000000
 Stoichiometry    H2O3
 Framework group  C1[X(H2O3)]
 Deg. of freedom     9
 Full point group                 C1      NOp   1
 Largest Abelian subgroup         C1      NOp   1
 Largest concise Abelian subgroup C1      NOp   1
                         Standard orientation:                         
 ---------------------------------------------------------------------
 Center     Atomic      Atomic             Coordinates (Angstroms)
 Number     Number       Type             X           Y           Z
 ---------------------------------------------------------------------
      1          8           0       -0.695366   -0.579870    0.032855
      2          1           0        0.264465   -0.370407   -0.148090
      3          8           0       -1.329466    0.489228   -0.016018
      4          8           0        1.752261    0.018074   -0.019766
      5          1           0        1.916105    0.950950    0.171524
 ---------------------------------------------------------------------
 Rotational constants (GHZ):     49.0897304      5.6844347      5.1020745
 Standard basis: 6-31+G(d,p) (6D, 7F)
 There are    67 symmetry adapted basis functions of A   symmetry.
 Integral buffers will be    262144 words long.
 Raffenetti 2 integral format.
 Two-electron integral symmetry is turned on.
    67 basis functions,   110 primitive gaussians,    67 cartesian basis functions
    13 alpha electrons       13 beta electrons
       nuclear repulsion energy        68.1552363356 Hartrees.
 NAtoms=    5 NActive=    5 NUniq=    5 SFac= 7.50D-01 NAtFMM=   80 NAOKFM=F Big=F
 One-electron integrals computed using PRISM.
 NBasis=    67 RedAO= T  NBF=    67
 NBsUse=    67 1.00D-06 NBFU=    67
 Initial guess read from the read-write file.
 B after Tr=     0.000000    0.000000    0.000000
         Rot=    1.000000    0.000000    0.000000    0.000000 Ang=   0.00 deg.
 Initial guess orbital symmetries:
       Occupied  (A) (A) (A) (A) (A) (A) (A) (A) (A) (A) (A) (A)
                 (A)
       Virtual   (A) (A) (A) (A) (A) (A) (A) (A) (A) (A) (A) (A)
                 (A) (A) (A) (A) (A) (A) (A) (A) (A) (A) (A) (A)
                 (A) (A) (A) (A) (A) (A) (A) (A) (A) (A) (A) (A)
                 (A) (A) (A) (A) (A) (A) (A) (A) (A) (A) (A) (A)
                 (A) (A) (A) (A) (A) (A)
 Harris functional with IExCor= 1009 diagonalized for initial guess.
 ExpMin= 8.45D-02 ExpMax= 5.48D+03 ExpMxC= 8.25D+02 IAcc=2 IRadAn=         0 AccDes= 0.00D+00
 HarFok:  IExCor= 1009 AccDes= 0.00D+00 IRadAn=         0 IDoV= 1
 ScaDFX=  1.000000  1.000000  1.000000  1.000000
 FoFCou: FMM=F IPFlag=           0 FMFlag=      100000 FMFlg1=           0
         NFxFlg=           0 DoJE=T BraDBF=F KetDBF=T FulRan=T
         Omega=  0.000000  0.000000  1.000000  0.000000  0.000000 ICntrl=     500 IOpCl=  0
         NMat0=    1 NMatS0=    1 NMatT0=    0 NMatD0=    1 NMtDS0=    0 NMtDT0=    0
         I1Cent=           4 NGrid=           0.
 Petite list used in FoFCou.
 Requested convergence on RMS density matrix=1.00D-08 within 128 cycles.
 Requested convergence on MAX density matrix=1.00D-06.
 Requested convergence on             energy=1.00D-06.
 No special actions if energy rises.
 Keep R1 ints in memory in canonical form, NReq=3551083.
 Integral accuracy reduced to 1.0D-05 until final iterations.
 Initial convergence to 1.0D-05 achieved.  Increase integral accuracy.
 SCF Done:  E(RM062X) =  -226.494166993     A.U. after   30 cycles
             Convg  =    0.1638D-08             -V/T =  2.0085
 Calling FoFJK, ICntrl=      2127 FMM=F ISym2X=0 I1Cent= 0 IOpClX= 0 NMat=1 NMatS=1 NMatT=0.
 ***** Axes restored to original set *****
 -------------------------------------------------------------------
 Center     Atomic                   Forces (Hartrees/Bohr)
 Number     Number              X              Y              Z
 -------------------------------------------------------------------
      1        8           0.039945336   -0.036934021   -0.012215095
      2        1          -0.031691868    0.085017669    0.015268739
      3        8          -0.020476057   -0.004019042   -0.002205038
      4        8           0.011327570   -0.043328487    0.000148093
      5        1           0.000895019   -0.000736118   -0.000996699
 -------------------------------------------------------------------
 Cartesian Forces:  Max     0.085017669 RMS     0.030575357

 GradGradGradGradGradGradGradGradGradGradGradGradGradGradGradGradGradGrad
 Berny optimization.
 Internal  Forces:  Max     0.046730585 RMS     0.023026120
 Search for a saddle point.
 Step number   6 out of a maximum of  100
 All quantities printed in internal units (Hartrees-Bohrs-Radians)
 Swaping is turned off.
 Update second derivatives using D2CorX and points    3    4    5    6
 The second derivative matrix:
                          R1        R2        R3        R4        A1
           R1           0.24183
           R2           0.11467   0.37456
           R3           0.08360  -0.03688   0.01066
           R4           0.00249  -0.00452  -0.00452   0.56871
           A1          -0.00077   0.03486  -0.01313  -0.00022   0.10195
           A2           0.03004  -0.00588  -0.00024   0.01411   0.00049
           A3           0.00480  -0.00318   0.00365  -0.00083  -0.00820
           A4          -0.02115   0.01575  -0.00328   0.00117   0.01245
           D1          -0.00838  -0.01974  -0.00602   0.00093  -0.01291
                          A2        A3        A4        D1
           A2           0.09043
           A3          -0.00407   0.02763
           A4          -0.00729  -0.00895  -0.00799
           D1          -0.00329   0.00038   0.00351   0.00382
     Eigenvalues ---   -0.03547  -0.01104   0.00328   0.02775   0.08441
     Eigenvalues ---    0.09997   0.22855   0.44488   0.56927
 Eigenvectors required to have negative eigenvalues:
                          R3        R1        A4        D1        R2
   1                    0.81863  -0.35207  -0.33669   0.20698   0.18944
                          A2        A1        A3        R4
   1                    0.07776   0.07521  -0.04515   0.00747
 RFO step:  Lambda0=3.983247830D-02 Lambda=-3.66076534D-02.
 Linear search not attempted -- option 19 set.
 Maximum step size (   0.300) exceeded in Quadratic search.
    -- Step size scaled by   0.274
 Iteration  1 RMS(Cart)=  0.06862458 RMS(Int)=  0.01409234
 Iteration  2 RMS(Cart)=  0.01033353 RMS(Int)=  0.00015356
 Iteration  3 RMS(Cart)=  0.00012912 RMS(Int)=  0.00000002
 Iteration  4 RMS(Cart)=  0.00000002 RMS(Int)=  0.00000000
 Variable       Old X    -DE/DX   Delta X   Delta X   Delta X     New X
                                 (Linear)    (Quad)   (Total)
    R1        1.88773   0.04673   0.00000  -0.02155  -0.02155   1.86618
    R2        2.35075  -0.02030   0.00000   0.01847   0.01847   2.36922
    R3        2.91589  -0.04559   0.00000   0.08864   0.08864   3.00453
    R4        1.82600   0.00027   0.00000   0.00141   0.00141   1.82741
    A1        1.87807   0.00668   0.00000   0.05691   0.05691   1.93498
    A2        2.00757  -0.00228   0.00000   0.00065   0.00065   2.00822
    A3        3.08782   0.00093   0.00000  -0.02994  -0.02994   3.05788
    A4        2.74925  -0.00662   0.00000  -0.24007  -0.24007   2.50919
    D1        0.27317   0.00165   0.00000   0.13989   0.13989   0.41305
         Item               Value     Threshold  Converged?
 Maximum Force            0.046731     0.000450     NO 
 RMS     Force            0.023026     0.000300     NO 
 Maximum Displacement     0.109099     0.001800     NO 
 RMS     Displacement     0.074080     0.001200     NO 
 Predicted change in Energy= 2.447253D-03
 GradGradGradGradGradGradGradGradGradGradGradGradGradGradGradGradGradGrad

                          Input orientation:                          
 ---------------------------------------------------------------------
 Center     Atomic      Atomic             Coordinates (Angstroms)
 Number     Number       Type             X           Y           Z
 ---------------------------------------------------------------------
      1          8           0       -1.205050    0.457307   -0.168519
      2          1           0       -1.583161    1.309779    0.156380
      3          8           0        0.026109    0.398612    0.060948
      4          8           0       -2.046271    2.826496    0.042520
      5          1           0       -1.331623    3.464069   -0.091329
 ---------------------------------------------------------------------
                    Distance matrix (angstroms):
                    1          2          3          4          5
     1  O    0.000000
     2  H    0.987541   0.000000
     3  O    1.253735   1.851778   0.000000
     4  O    2.522945   1.589927   3.192134   0.000000
     5  H    3.010415   2.183024   3.356136   0.967024   0.000000
 Stoichiometry    H2O3
 Framework group  C1[X(H2O3)]
 Deg. of freedom     9
 Full point group                 C1      NOp   1
 Largest Abelian subgroup         C1      NOp   1
 Largest concise Abelian subgroup C1      NOp   1
                         Standard orientation:                         
 ---------------------------------------------------------------------
 Center     Atomic      Atomic             Coordinates (Angstroms)
 Number     Number       Type             X           Y           Z
 ---------------------------------------------------------------------
      1          8           0       -0.671022   -0.564367    0.051242
      2          1           0        0.255271   -0.373944   -0.233290
      3          8           0       -1.381990    0.465531   -0.024154
      4          8           0        1.780026    0.028106   -0.029957
      5          1           0        1.928616    0.939779    0.256240
 ---------------------------------------------------------------------
 Rotational constants (GHZ):     51.8499916      5.4717277      4.9662267
 Standard basis: 6-31+G(d,p) (6D, 7F)
 There are    67 symmetry adapted basis functions of A   symmetry.
 Integral buffers will be    262144 words long.
 Raffenetti 2 integral format.
 Two-electron integral symmetry is turned on.
    67 basis functions,   110 primitive gaussians,    67 cartesian basis functions
    13 alpha electrons       13 beta electrons
       nuclear repulsion energy        67.5699701618 Hartrees.
 NAtoms=    5 NActive=    5 NUniq=    5 SFac= 7.50D-01 NAtFMM=   80 NAOKFM=F Big=F
 One-electron integrals computed using PRISM.
 NBasis=    67 RedAO= T  NBF=    67
 NBsUse=    67 1.00D-06 NBFU=    67
 Initial guess read from the read-write file.
 B after Tr=     0.000000    0.000000    0.000000
         Rot=    1.000000    0.000000    0.000000    0.000000 Ang=   0.00 deg.
 Initial guess orbital symmetries:
       Occupied  (A) (A) (A) (A) (A) (A) (A) (A) (A) (A) (A) (A)
                 (A)
       Virtual   (A) (A) (A) (A) (A) (A) (A) (A) (A) (A) (A) (A)
                 (A) (A) (A) (A) (A) (A) (A) (A) (A) (A) (A) (A)
                 (A) (A) (A) (A) (A) (A) (A) (A) (A) (A) (A) (A)
                 (A) (A) (A) (A) (A) (A) (A) (A) (A) (A) (A) (A)
                 (A) (A) (A) (A) (A) (A)
 Harris functional with IExCor= 1009 diagonalized for initial guess.
 ExpMin= 8.45D-02 ExpMax= 5.48D+03 ExpMxC= 8.25D+02 IAcc=2 IRadAn=         0 AccDes= 0.00D+00
 HarFok:  IExCor= 1009 AccDes= 0.00D+00 IRadAn=         0 IDoV= 1
 ScaDFX=  1.000000  1.000000  1.000000  1.000000
 FoFCou: FMM=F IPFlag=           0 FMFlag=      100000 FMFlg1=           0
         NFxFlg=           0 DoJE=T BraDBF=F KetDBF=T FulRan=T
         Omega=  0.000000  0.000000  1.000000  0.000000  0.000000 ICntrl=     500 IOpCl=  0
         NMat0=    1 NMatS0=    1 NMatT0=    0 NMatD0=    1 NMtDS0=    0 NMtDT0=    0
         I1Cent=           4 NGrid=           0.
 Petite list used in FoFCou.
 Requested convergence on RMS density matrix=1.00D-08 within 128 cycles.
 Requested convergence on MAX density matrix=1.00D-06.
 Requested convergence on             energy=1.00D-06.
 No special actions if energy rises.
 Keep R1 ints in memory in canonical form, NReq=3551083.
 Integral accuracy reduced to 1.0D-05 until final iterations.
 Initial convergence to 1.0D-05 achieved.  Increase integral accuracy.
 SCF Done:  E(RM062X) =  -226.490822604     A.U. after   28 cycles
             Convg  =    0.8465D-08             -V/T =  2.0086
 Calling FoFJK, ICntrl=      2127 FMM=F ISym2X=0 I1Cent= 0 IOpClX= 0 NMat=1 NMatS=1 NMatT=0.
 ***** Axes restored to original set *****
 -------------------------------------------------------------------
 Center     Atomic                   Forces (Hartrees/Bohr)
 Number     Number              X              Y              Z
 -------------------------------------------------------------------
      1        8           0.045308938   -0.040110215   -0.018764208
      2        1          -0.027486530    0.080079733    0.022861678
      3        8          -0.029915184    0.002525786   -0.003463453
      4        8           0.011112721   -0.041496999    0.000163418
      5        1           0.000980055   -0.000998305   -0.000797435
 -------------------------------------------------------------------
 Cartesian Forces:  Max     0.080079733 RMS     0.031054963

 GradGradGradGradGradGradGradGradGradGradGradGradGradGradGradGradGradGrad
 Berny optimization.
 Internal  Forces:  Max     0.044614208 RMS     0.023393718
 Search for a saddle point.
 Step number   7 out of a maximum of  100
 All quantities printed in internal units (Hartrees-Bohrs-Radians)
 Swaping is turned off.
 Update second derivatives using D2CorX and points    4    5    6    7
 The second derivative matrix:
                          R1        R2        R3        R4        A1
           R1           0.24822
           R2           0.10570   0.38023
           R3           0.07542  -0.01700   0.00866
           R4           0.00241  -0.00420  -0.00472   0.56871
           A1          -0.01178   0.04498   0.00691   0.00007   0.11669
           A2           0.02984  -0.00518  -0.00062   0.01410   0.00112
           A3           0.00615  -0.00977   0.00851  -0.00069  -0.01395
           A4          -0.00989  -0.00906  -0.00196   0.00136  -0.01293
           D1          -0.01940   0.00596  -0.00749   0.00070   0.01326
                          A2        A3        A4        D1
           A2           0.09040
           A3          -0.00378   0.02438
           A4          -0.00673  -0.01453  -0.00757
           D1          -0.00376   0.00621   0.00346   0.00347
     Eigenvalues ---   -0.02455  -0.01624   0.00162   0.03034   0.08507
     Eigenvalues ---    0.11160   0.23181   0.44427   0.56926
 Eigenvectors required to have negative eigenvalues:
                          R3        A4        A3        R1        D1
   1                    0.78348  -0.39562  -0.27163  -0.26397   0.20400
                          A1        R2        A2        R4
   1                   -0.17598   0.10372   0.05284   0.00715
 RFO step:  Lambda0=3.328695078D-02 Lambda=-5.13111115D-02.
 Linear search not attempted -- option 19 set.
 Maximum step size (   0.300) exceeded in Quadratic search.
    -- Step size scaled by   0.267
 Iteration  1 RMS(Cart)=  0.12494747 RMS(Int)=  0.01778143
 Iteration  2 RMS(Cart)=  0.01656929 RMS(Int)=  0.00030051
 Iteration  3 RMS(Cart)=  0.00020423 RMS(Int)=  0.00000007
 Iteration  4 RMS(Cart)=  0.00000007 RMS(Int)=  0.00000000
 Variable       Old X    -DE/DX   Delta X   Delta X   Delta X     New X
                                 (Linear)    (Quad)   (Total)
    R1        1.86618   0.04461   0.00000   0.01452   0.01452   1.88070
    R2        2.36922  -0.02938   0.00000  -0.01742  -0.01742   2.35179
    R3        3.00453  -0.04398   0.00000   0.06300   0.06300   3.06753
    R4        1.82741   0.00021   0.00000   0.00106   0.00106   1.82847
    A1        1.93498  -0.00703   0.00000  -0.06240  -0.06240   1.87258
    A2        2.00822  -0.00283   0.00000  -0.01080  -0.01080   1.99743
    A3        3.05788  -0.00234   0.00000  -0.13310  -0.13310   2.92478
    A4        2.50919  -0.00849   0.00000  -0.22448  -0.22448   2.28471
    D1        0.41305   0.00156   0.00000   0.11576   0.11576   0.52881
         Item               Value     Threshold  Converged?
 Maximum Force            0.044614     0.000450     NO 
 RMS     Force            0.023394     0.000300     NO 
 Maximum Displacement     0.218605     0.001800     NO 
 RMS     Displacement     0.130432     0.001200     NO 
 Predicted change in Energy=-1.996565D-03
 GradGradGradGradGradGradGradGradGradGradGradGradGradGradGradGradGradGrad

                          Input orientation:                          
 ---------------------------------------------------------------------
 Center     Atomic      Atomic             Coordinates (Angstroms)
 Number     Number       Type             X           Y           Z
 ---------------------------------------------------------------------
      1          8           0       -1.202041    0.485693   -0.236081
      2          1           0       -1.645604    1.246905    0.226823
      3          8           0        0.002428    0.514293    0.075769
      4          8           0       -2.025168    2.815877    0.055791
      5          1           0       -1.269612    3.393494   -0.122303
 ---------------------------------------------------------------------
                    Distance matrix (angstroms):
                    1          2          3          4          5
     1  O    0.000000
     2  H    0.995224   0.000000
     3  O    1.244514   1.809848   0.000000
     4  O    2.488470   1.623266   3.067383   0.000000
     5  H    2.910810   2.207057   3.153905   0.967587   0.000000
 Stoichiometry    H2O3
 Framework group  C1[X(H2O3)]
 Deg. of freedom     9
 Full point group                 C1      NOp   1
 Largest Abelian subgroup         C1      NOp   1
 Largest concise Abelian subgroup C1      NOp   1
                         Standard orientation:                         
 ---------------------------------------------------------------------
 Center     Atomic      Atomic             Coordinates (Angstroms)
 Number     Number       Type             X           Y           Z
 ---------------------------------------------------------------------
      1          8           0        0.679829   -0.580598   -0.070899
      2          1           0       -0.211363   -0.447982    0.351786
      3          8           0        1.301985    0.492188    0.033341
      4          8           0       -1.730309    0.029565    0.035966
      5          1           0       -1.800673    0.918741   -0.339054
 ---------------------------------------------------------------------
 Rotational constants (GHZ):     47.4406609      5.8766990      5.2653023
 Standard basis: 6-31+G(d,p) (6D, 7F)
 There are    67 symmetry adapted basis functions of A   symmetry.
 Integral buffers will be    262144 words long.
 Raffenetti 2 integral format.
 Two-electron integral symmetry is turned on.
    67 basis functions,   110 primitive gaussians,    67 cartesian basis functions
    13 alpha electrons       13 beta electrons
       nuclear repulsion energy        68.4765779197 Hartrees.
 NAtoms=    5 NActive=    5 NUniq=    5 SFac= 7.50D-01 NAtFMM=   80 NAOKFM=F Big=F
 One-electron integrals computed using PRISM.
 NBasis=    67 RedAO= T  NBF=    67
 NBsUse=    67 1.00D-06 NBFU=    67
 Initial guess read from the read-write file.
 B after Tr=     0.000000    0.000000    0.000000
         Rot=    1.000000    0.000000    0.000000    0.000000 Ang=   0.00 deg.
 Initial guess orbital symmetries:
       Occupied  (A) (A) (A) (A) (A) (A) (A) (A) (A) (A) (A) (A)
                 (A)
       Virtual   (A) (A) (A) (A) (A) (A) (A) (A) (A) (A) (A) (A)
                 (A) (A) (A) (A) (A) (A) (A) (A) (A) (A) (A) (A)
                 (A) (A) (A) (A) (A) (A) (A) (A) (A) (A) (A) (A)
                 (A) (A) (A) (A) (A) (A) (A) (A) (A) (A) (A) (A)
                 (A) (A) (A) (A) (A) (A)
 Harris functional with IExCor= 1009 diagonalized for initial guess.
 ExpMin= 8.45D-02 ExpMax= 5.48D+03 ExpMxC= 8.25D+02 IAcc=2 IRadAn=         0 AccDes= 0.00D+00
 HarFok:  IExCor= 1009 AccDes= 0.00D+00 IRadAn=         0 IDoV= 1
 ScaDFX=  1.000000  1.000000  1.000000  1.000000
 FoFCou: FMM=F IPFlag=           0 FMFlag=      100000 FMFlg1=           0
         NFxFlg=           0 DoJE=T BraDBF=F KetDBF=T FulRan=T
         Omega=  0.000000  0.000000  1.000000  0.000000  0.000000 ICntrl=     500 IOpCl=  0
         NMat0=    1 NMatS0=    1 NMatT0=    0 NMatD0=    1 NMtDS0=    0 NMtDT0=    0
         I1Cent=           4 NGrid=           0.
 Petite list used in FoFCou.
 Requested convergence on RMS density matrix=1.00D-08 within 128 cycles.
 Requested convergence on MAX density matrix=1.00D-06.
 Requested convergence on             energy=1.00D-06.
 No special actions if energy rises.
 Keep R1 ints in memory in canonical form, NReq=3551083.
 Integral accuracy reduced to 1.0D-05 until final iterations.
[...]
      1 vectors produced by pass  8 Test12= 3.90D-15 5.56D-09 XBig12= 8.99D-15 2.17D-08.
 Inverted reduced A of dimension   106 with in-core refinement.
 Isotropic polarizability for W=    0.000000       26.02 Bohr**3.
 End of Minotr Frequency-dependent properties file   721 does not exist.
 End of Minotr Frequency-dependent properties file   722 does not exist.

 **********************************************************************

            Population analysis using the SCF density.

 **********************************************************************

 Orbital symmetries:
       Occupied  (A) (A) (A) (A) (A) (A) (A) (A) (A) (A) (A) (A)
                 (A)
       Virtual   (A) (A) (A) (A) (A) (A) (A) (A) (A) (A) (A) (A)
                 (A) (A) (A) (A) (A) (A) (A) (A) (A) (A) (A) (A)
                 (A) (A) (A) (A) (A) (A) (A) (A) (A) (A) (A) (A)
                 (A) (A) (A) (A) (A) (A) (A) (A) (A) (A) (A) (A)
                 (A) (A) (A) (A) (A) (A)
 The electronic state is 1-A.
 Alpha  occ. eigenvalues --  -19.87811 -19.75061 -19.69064  -1.41785  -1.12511
 Alpha  occ. eigenvalues --   -0.98916  -0.71076  -0.62735  -0.61658  -0.54030
 Alpha  occ. eigenvalues --   -0.42726  -0.37995  -0.36569
 Alpha virt. eigenvalues --   -0.12612   0.05549   0.09923   0.11052   0.13292
 Alpha virt. eigenvalues --    0.17634   0.18565   0.19574   0.21004   0.21413
 Alpha virt. eigenvalues --    0.24544   0.25436   0.27723   0.30878   0.33836
 Alpha virt. eigenvalues --    0.37178   0.91085   0.99269   1.02184   1.10057
 Alpha virt. eigenvalues --    1.13064   1.15443   1.18932   1.19759   1.20492
 Alpha virt. eigenvalues --    1.22032   1.28682   1.30029   1.39870   1.47565
 Alpha virt. eigenvalues --    1.51695   1.53360   1.62586   1.64848   1.71961
 Alpha virt. eigenvalues --    1.81124   1.82247   1.98385   2.15193   2.25792
 Alpha virt. eigenvalues --    2.41629   2.42769   2.51531   2.64454   2.66501
 Alpha virt. eigenvalues --    2.83932   2.84262   3.00979   3.01654   3.42070
 Alpha virt. eigenvalues --    3.44306   3.75702   4.03646   4.21883
          Condensed to atoms (all electrons):
              1          2          3          4          5
     1  O    7.608748   0.206692   0.197003  -0.125937   0.031856
     2  H    0.206692   0.337543  -0.036663   0.056779  -0.007299
     3  O    0.197003  -0.036663   8.095385   0.012977  -0.007012
     4  O   -0.125937   0.056779   0.012977   8.458532   0.232080
     5  H    0.031856  -0.007299  -0.007012   0.232080   0.378838
 Mulliken atomic charges:
              1
     1  O    0.081637
     2  H    0.442948
     3  O   -0.261691
     4  O   -0.634431
     5  H    0.371537
 Sum of Mulliken atomic charges =   0.00000
 Mulliken charges with hydrogens summed into heavy atoms:
              1
     1  O    0.524586
     3  O   -0.261691
     4  O   -0.262894
 Sum of Mulliken charges with hydrogens summed into heavy atoms =   0.00000
 APT atomic charges:
              1
     1  O    0.661365
     2  H    0.279627
     3  O   -0.455676
     4  O   -0.725354
     5  H    0.240038
 Sum of APT charges=   0.00000
 APT Atomic charges with hydrogens summed into heavy atoms:
              1
     1  O    0.940993
     2  H    0.000000
     3  O   -0.455676
     4  O   -0.485316
     5  H    0.000000
 Sum of APT charges=   0.00000
 Electronic spatial extent (au):  <R**2>=            167.4096
 Charge=              0.0000 electrons
 Dipole moment (field-independent basis, Debye):
    X=              0.1208    Y=              0.0203    Z=              0.9026  Tot=              0.9109
 Quadrupole moment (field-independent basis, Debye-Ang):
   XX=            -22.1047   YY=            -14.7284   ZZ=            -17.1610
   XY=             -2.4752   XZ=              0.1625   YZ=             -1.7388
 Traceless Quadrupole moment (field-independent basis, Debye-Ang):
   XX=             -4.1067   YY=              3.2696   ZZ=              0.8370
   XY=             -2.4752   XZ=              0.1625   YZ=             -1.7388
 Octapole moment (field-independent basis, Debye-Ang**2):
  XXX=              5.4562  YYY=              1.1321  ZZZ=              0.7357  XYY=             -2.4073
  XXY=              1.5475  XXZ=             -0.3826  XZZ=              0.4985  YZZ=             -1.1464
  YYZ=              0.2432  XYZ=              0.9972
 Hexadecapole moment (field-independent basis, Debye-Ang**3):
 XXXX=           -152.2200 YYYY=            -26.4068 ZZZZ=            -15.9875 XXXY=             -4.9026
 XXXZ=              1.1284 YYYX=             -3.4008 YYYZ=             -1.7924 ZZZX=             -0.0540
 ZZZY=             -1.5428 XXYY=            -24.9843 XXZZ=            -28.6597 YYZZ=             -7.4025
 XXYZ=             -0.9961 YYXZ=              0.5624 ZZXY=             -0.5298
 N-N= 7.535654929819D+01 E-N=-6.849338597899D+02  KE= 2.247025411795D+02
  Exact polarizability:  48.644  -0.238  16.312  -0.019  -0.373  13.112
 Approx polarizability:  83.080   2.767  20.162  -0.174  -0.246  13.967
 Calling FoFJK, ICntrl=    100127 FMM=F ISym2X=0 I1Cent= 0 IOpClX= 0 NMat=1 NMatS=1 NMatT=0.
 Full mass-weighted force constant matrix:
 Low frequencies ----1133.2585  -89.5142  -31.5879   -0.0018    0.0012    0.0013
 Low frequencies ---   42.4733  277.2611  330.0453
 ******    1 imaginary frequencies (negative Signs) ****** 
 Diagonal vibrational polarizability:
       17.8350485       7.9934258      46.4592735
 Harmonic frequencies (cm**-1), IR intensities (KM/Mole), Raman scattering
 activities (A**4/AMU), depolarization ratios for plane and unpolarized
 incident light, reduced masses (AMU), force constants (mDyne/A),
 and normal coordinates:
                     1                      2                      3
                     A                      A                      A
 Frequencies -- -1133.2358               277.2372               329.9665
 Red. masses --     1.1690                 1.5100                 2.8390
 Frc consts  --     0.8845                 0.0684                 0.1821
 IR Inten    --   129.4383                95.4610                68.2683
  Atom  AN      X      Y      Z        X      Y      Z        X      Y      Z
     1   8    -0.09   0.02   0.02    -0.02  -0.06   0.06    -0.03   0.14   0.07
     2   1     0.77  -0.56   0.29    -0.07  -0.03   0.05     0.06   0.13   0.11
     3   8     0.01   0.01   0.00    -0.09   0.04  -0.04     0.22  -0.08  -0.05
     4   8     0.03   0.00  -0.03     0.10   0.00  -0.07    -0.16  -0.08  -0.08
     5   1     0.02   0.00  -0.09     0.35   0.18   0.90    -0.46   0.17   0.78
                     4                      5                      6
                     A                      A                      A
 Frequencies --   621.8941               920.7773              1332.8768
 Red. masses --     5.5556                 1.2322                 4.5412
 Frc consts  --     1.2659                 0.6155                 4.7534
 IR Inten    --   177.6060                14.1153               262.4286
  Atom  AN      X      Y      Z        X      Y      Z        X      Y      Z
     1   8     0.31  -0.23   0.01    -0.05   0.05   0.00     0.21   0.28   0.10
     2   1     0.53  -0.51  -0.01    -0.10   0.00  -0.02    -0.19  -0.80  -0.25
     3   8    -0.01   0.09  -0.01     0.06   0.01   0.00    -0.21  -0.23  -0.08
     4   8    -0.35   0.16  -0.01    -0.07  -0.04   0.01     0.01   0.00   0.00
     5   1     0.27   0.11   0.27     0.95  -0.26  -0.07     0.15  -0.06  -0.08
                     7                      8                      9
                     A                      A                      A
 Frequencies --  1430.5526              3118.4770              3845.6951
 Red. masses --     1.2944                 1.0605                 1.0677
 Frc consts  --     1.5607                 6.0766                 9.3035
 IR Inten    --   158.3285                93.6471                85.1782
  Atom  AN      X      Y      Z        X      Y      Z        X      Y      Z
     1   8     0.05   0.04  -0.05     0.03   0.01  -0.05     0.00   0.00   0.00
     2   1     0.55   0.74   0.32    -0.40  -0.17   0.90     0.01   0.00   0.00
     3   8    -0.08  -0.07   0.03     0.00   0.00   0.00     0.00   0.00   0.00
     4   8    -0.01  -0.01   0.00     0.00   0.00  -0.01     0.01   0.06  -0.01
     5   1     0.14  -0.02   0.06    -0.01   0.00  -0.01    -0.19  -0.96   0.22

 -------------------
 - Thermochemistry -
 -------------------
 Temperature   298.150 Kelvin.  Pressure   1.00000 Atm.
 Atom     1 has atomic number  8 and mass  15.99491
 Atom     2 has atomic number  1 and mass   1.00783
 Atom     3 has atomic number  8 and mass  15.99491
 Atom     4 has atomic number  8 and mass  15.99491
 Atom     5 has atomic number  1 and mass   1.00783
 Molecular mass:    50.00039 amu.
 Principal axes and moments of inertia in atomic units:
                           1         2         3
     Eigenvalues --    30.91390 213.65824 239.23377
           X            0.99977  -0.02143   0.00251
           Y            0.02157   0.99601  -0.08656
           Z           -0.00064   0.08659   0.99624
 This molecule is an asymmetric top.
 Rotational symmetry number  1.
 Rotational temperatures (Kelvin)      2.80178     0.40538     0.36205
 Rotational constants (GHZ):          58.37961     8.44686     7.54384
    1 imaginary frequencies ignored.
 Zero-point vibrational energy      71043.1 (Joules/Mol)
                                   16.97971 (Kcal/Mol)
 Warning -- explicit consideration of   2 degrees of freedom as
           vibrations may cause significant error
 Vibrational temperatures:    398.88   474.75   894.77  1324.79  1917.71
          (Kelvin)           2058.24  4486.79  5533.09
 
 Zero-point correction=                           0.027059 (Hartree/Particle)
 Thermal correction to Energy=                    0.030939
 Thermal correction to Enthalpy=                  0.031884
 Thermal correction to Gibbs Free Energy=         0.001936
 Sum of electronic and zero-point Energies=           -226.482631
 Sum of electronic and thermal Energies=              -226.478751
 Sum of electronic and thermal Enthalpies=            -226.477806
 Sum of electronic and thermal Free Energies=         -226.507754
 
                     E (Thermal)             CV                S
                      KCal/Mol        Cal/Mol-Kelvin    Cal/Mol-Kelvin
 Total                   19.415             10.979             63.029
 Electronic               0.000              0.000              0.000
 Translational            0.889              2.981             37.652
 Rotational               0.889              2.981             21.985
 Vibrational             17.637              5.017              3.393
 Vibration     1          0.678              1.716              1.551
 Vibration     2          0.713              1.616              1.260
                       Q            Log10(Q)             Ln(Q)
 Total Bot       0.128622D+00         -0.890686         -2.050880
 Total V=0       0.359343D+12         11.555510         26.607544
 Vib (Bot)       0.650436D-12        -12.186796        -28.061134
 Vib (Bot)    1  0.694499D+00         -0.158328         -0.364565
 Vib (Bot)    2  0.566270D+00         -0.246976         -0.568684
 Vib (V=0)       0.181719D+01          0.259400          0.597290
 Vib (V=0)    1  0.135576D+01          0.132183          0.304364
 Vib (V=0)    2  0.125542D+01          0.098790          0.227471
 Electronic      0.100000D+01          0.000000          0.000000
 Translational   0.138968D+08          7.142915         16.447170
 Rotational      0.142297D+05          4.153194          9.563083
 ***** Axes restored to original set *****
 -------------------------------------------------------------------
 Center     Atomic                   Forces (Hartrees/Bohr)
 Number     Number              X              Y              Z
 -------------------------------------------------------------------
      1        8           0.000010402   -0.000020420    0.000014212
      2        1           0.000011670    0.000042347    0.000076529
      3        8          -0.000102377   -0.000035163   -0.000125254
      4        8           0.000041247    0.000013855    0.000063220
      5        1           0.000039058   -0.000000619   -0.000028708
 -------------------------------------------------------------------
 Cartesian Forces:  Max     0.000125254 RMS     0.000054258

 GradGradGradGradGradGradGradGradGradGradGradGradGradGradGradGradGradGrad
 Berny optimization.
 Internal  Forces:  Max     0.000070729 RMS     0.000025571
 Search for a saddle point.
 Step number   1 out of a maximum of    2
 All quantities printed in internal units (Hartrees-Bohrs-Radians)
 Swaping is turned off.
 Second derivative matrix not updated -- analytic derivatives used.
 The second derivative matrix:
                          R1        R2        R3        R4        A1
           R1           0.27614
           R2           0.09518   0.53578
           R3           0.10226   0.01249   0.08709
           R4           0.00596  -0.00767   0.00143   0.53026
           A1          -0.01145   0.12427   0.06407   0.00964   0.32937
           A2           0.00933   0.01070   0.01607   0.00043  -0.05565
           A3          -0.02253   0.08462   0.08900   0.00580   0.06378
           A4          -0.04009   0.05973   0.08052   0.00327  -0.04973
           D1           0.00452  -0.00425  -0.01268   0.00384   0.03949
                          A2        A3        A4        D1
           A2           0.12687
           A3           0.01973   0.08372
           A4           0.03868  -0.02677   0.09478
           D1          -0.06023  -0.01279  -0.01770   0.03865
     Eigenvalues ---   -0.09726   0.00717   0.07453   0.10936   0.20366
     Eigenvalues ---    0.28373   0.34774   0.53112   0.64260
 Eigenvectors required to have negative eigenvalues:
                          R3        A4        A3        R1        R2
   1                    0.63716  -0.49073  -0.45798  -0.30361   0.16683
                          A1        A2        D1        R4
   1                   -0.13683   0.05897   0.03332   0.01212
 Angle between quadratic step and forces=  69.88 degrees.
 Linear search not attempted -- option 19 set.
 Iteration  1 RMS(Cart)=  0.00011932 RMS(Int)=  0.00000001
 Iteration  2 RMS(Cart)=  0.00000001 RMS(Int)=  0.00000000
 Variable       Old X    -DE/DX   Delta X   Delta X   Delta X     New X
                                 (Linear)    (Quad)   (Total)
    R1        1.92501   0.00002   0.00000   0.00001   0.00001   1.92502
    R2        2.38451  -0.00007   0.00000  -0.00011  -0.00011   2.38441
    R3        2.86192  -0.00001   0.00000   0.00013   0.00013   2.86205
    R4        1.83491   0.00000   0.00000   0.00000   0.00000   1.83490
    A1        1.94262  -0.00001   0.00000   0.00002   0.00002   1.94265
    A2        1.98065   0.00002   0.00000   0.00024   0.00024   1.98090
    A3        2.44548   0.00000   0.00000  -0.00017  -0.00017   2.44531
    A4        1.35554   0.00000   0.00000  -0.00012  -0.00012   1.35542
    D1        0.40884  -0.00001   0.00000   0.00010   0.00010   0.40894
         Item               Value     Threshold  Converged?
 Maximum Force            0.000071     0.000450     YES
 RMS     Force            0.000026     0.000300     YES
 Maximum Displacement     0.000207     0.001800     YES
 RMS     Displacement     0.000119     0.001200     YES
 Predicted change in Energy=-4.944472D-09
 Optimization completed.
    -- Stationary point found.
                           ----------------------------
                           !   Optimized Parameters   !
                           ! (Angstroms and Degrees)  !
 --------------------------                            --------------------------
 ! Name  Definition              Value          Derivative Info.                !
 --------------------------------------------------------------------------------
 ! R1    R(1,2)                  1.0187         -DE/DX =    0.0                 !
 ! R2    R(1,3)                  1.2618         -DE/DX =   -0.0001              !
 ! R3    R(2,4)                  1.5145         -DE/DX =    0.0                 !
 ! R4    R(4,5)                  0.971          -DE/DX =    0.0                 !
 ! A1    A(2,1,3)              111.3041         -DE/DX =    0.0                 !
 ! A2    A(2,4,5)              113.483          -DE/DX =    0.0                 !
 ! A3    L(1,2,4,3,-1)         140.1154         -DE/DX =    0.0                 !
 ! A4    L(1,2,4,3,-2)          77.6668         -DE/DX =    0.0                 !
 ! D1    D(3,1,4,5)             23.4249         -DE/DX =    0.0                 !
 --------------------------------------------------------------------------------
 GradGradGradGradGradGradGradGradGradGradGradGradGradGradGradGradGradGrad

 1|1|UNPC-DESKTOP-319GPER|Freq|RM062X|6-31+G(d,p)|H2O3|SAGAD|08-Feb-202
 1|0||#N Geom=AllCheck Guess=TCheck SCRF=Check GenChk RM062X/6-31+G(d,p
 ) Freq||ts2||0,1|O,-1.2427674052,0.8874690279,-0.3171774919|H,-1.82265
 74761,1.1772208386,0.4686121668|O,-0.0380772822,0.7448962238,0.0301086
 255|O,-1.939865406,2.5827462887,-0.0830772607|H,-1.0966293906,3.063930
 8309,-0.0984660397||Version=IA32W-G09RevA.02|State=1-A|HF=-226.50969|R
 MSD=1.322e-009|RMSF=5.426e-005|ZeroPoint=0.0270589|Thermal=0.0309394|D
 ipole=-0.0207111,-0.0746169,0.3499123|DipoleDeriv=1.0354643,-1.4386662
 ,-0.0549354,-0.7978915,0.8373591,-0.0208143,0.1761158,-0.1777366,0.111
 2724,0.2784343,0.0570521,-0.0255849,0.2335906,0.2476929,-0.0410779,-0.
 0767733,-0.025018,0.3127549,-0.8478389,1.1438471,0.1229539,0.0014654,-
 0.3041074,-0.038758,-0.2673199,0.3346315,-0.2150829,-0.5103571,0.10427
 22,-0.0358202,0.5596169,-1.1019545,0.1081272,0.138219,-0.1170113,-0.56
 37509,0.0442973,0.1334948,-0.0066133,0.0032186,0.3210098,-0.007477,0.0
 297583,-0.0148656,0.3548065|Polar=29.7022486,-15.9162153,35.267271,0.4
 527636,-0.0832882,13.0988561|PG=C01 [X(H2O3)]|NImag=1||0.54133886,0.00
 799779,0.07652656,0.03779245,0.05857854,0.33736000,-0.08468972,0.02209
 186,0.08939866,0.15165886,-0.04093867,0.06036372,-0.02236735,-0.010173
 20,-0.03423214,0.14648306,-0.06445677,-0.26673301,-0.12922226,0.034788
 72,0.26318861,-0.46239009,0.00221109,-0.12293052,-0.05132382,0.0311146
 9,-0.01465766,0.53363262,0.03717917,-0.04500387,0.00170443,0.00845138,
 -0.00584141,0.00028768,-0.07201556,0.04112003,-0.13879440,-0.01106361,
 -0.09196223,0.02382092,0.01177662,0.02563601,0.12042147,-0.00788093,0.
 06087138,-0.01476001,-0.03974609,-0.00810231,-0.01594113,0.01740013,-0
 .00117680,-0.01030354,0.03157008,-0.00251077,0.45848734,0.00847892,-0.
 07095223,-0.03295004,-0.01282430,-0.02063444,0.02875905,0.03497135,0.0
 0141572,0.00598171,0.19079784,0.22954827,-0.03699599,0.01901488,0.0202
 5359,0.00968056,-0.01995523,-0.02164534,0.01643913,0.00382641,0.004364
 29,0.00032453,-0.00910963,0.00214626,0.02050096,0.00744535,0.00384171,
 0.00029581,0.00259705,-0.00142634,-0.00961517,-0.00518508,-0.00293721,
 -0.41748266,-0.22142381,0.01055177,0.40630106,-0.01271722,-0.02093419,
 -0.00496558,-0.00754574,0.00034427,0.00062133,0.00371843,0.00830952,0.
 00118621,-0.20002196,-0.13937733,0.00622355,0.21656649,0.15165772,-0.0
 0848511,-0.00207304,0.00108166,0.00632212,-0.00424276,-0.00044628,0.00
 072757,0.00206241,0.00109054,0.01146535,0.00731891,-0.00511880,-0.0100
 2993,-0.00306551,0.00339288||-0.00001040,0.00002042,-0.00001421,-0.000
 01167,-0.00004235,-0.00007653,0.00010238,0.00003516,0.00012525,-0.0000
 4125,-0.00001386,-0.00006322,-0.00003906,0.00000062,0.00002871|||@


 ...THE PHYSICISTS HAVE MADE THEIR UNIVERSE, AND IF YOU DO NOT LIKE
 IT, YOU MUST MAKE YOUR OWN.
                               -- E. R. HARRISON IN "COSMOLOGY" (1980)
 Job cpu time:  0 days  0 hours  0 minutes 13.0 seconds.
 File lengths (MBytes):  RWF=      6 Int=      0 D2E=      0 Chk=      1 Scr=      1
 Normal termination of Gaussian 09 at Mon Feb 08 07:22:57 2021.
